# vtk DataFile Version 4.0
SUAVE Model of PROWIM Wing 
ASCII
DATASET UNSTRUCTURED_GRID

POINTS 156 float
7.7 0.0 0.25
7.9794 0.0 0.25
8.2588 0.0 0.25
8.5382 0.0 0.25
8.8176 0.0 0.25
8.8176 0.0 0.25
7.7217 0.0691 0.25
7.996 0.0691 0.25
8.2703 0.0691 0.25
8.5446 0.0691 0.25
8.8189 0.0691 0.25
8.8189 0.0691 0.25
7.7433 0.1382 0.25
8.0126 0.1382 0.25
8.2818 0.1382 0.25
8.551 0.1382 0.25
8.8203 0.1382 0.25
8.8203 0.1382 0.25
7.765 0.2072 0.25
8.0292 0.2072 0.25
8.2933 0.2072 0.25
8.5575 0.2072 0.25
8.8216 0.2072 0.25
8.8216 0.2072 0.25
7.7867 0.2763 0.25
8.0457 0.2763 0.25
8.3048 0.2763 0.25
8.5639 0.2763 0.25
8.823 0.2763 0.25
8.823 0.2763 0.25
7.8083 0.3454 0.25
8.0623 0.3454 0.25
8.3163 0.3454 0.25
8.5703 0.3454 0.25
8.8243 0.3454 0.25
8.8243 0.3454 0.25
7.83 0.4145 0.25
8.0789 0.4145 0.25
8.3278 0.4145 0.25
8.5767 0.4145 0.25
8.8257 0.4145 0.25
8.8257 0.4145 0.25
7.8517 0.4836 0.25
8.0955 0.4836 0.25
8.3393 0.4836 0.25
8.5832 0.4836 0.25
8.827 0.4836 0.25
8.827 0.4836 0.25
7.8733 0.5526 0.25
8.1121 0.5526 0.25
8.3508 0.5526 0.25
8.5896 0.5526 0.25
8.8284 0.5526 0.25
8.8284 0.5526 0.25
7.895 0.6217 0.25
8.1287 0.6217 0.25
8.3623 0.6217 0.25
8.596 0.6217 0.25
8.8297 0.6217 0.25
8.8297 0.6217 0.25
7.9166 0.6908 0.25
8.1452 0.6908 0.25
8.3738 0.6908 0.25
8.6024 0.6908 0.25
8.831 0.6908 0.25
8.831 0.6908 0.25
7.9383 0.7599 0.25
8.1618 0.7599 0.25
8.3854 0.7599 0.25
8.6089 0.7599 0.25
8.8324 0.7599 0.25
8.8324 0.7599 0.25
7.96 0.829 0.25
8.1784 0.829 0.25
8.3969 0.829 0.25
8.6153 0.829 0.25
8.8337 0.829 0.25
8.8337 0.829 0.25
7.9816 0.898 0.25
8.195 0.898 0.25
8.4084 0.898 0.25
8.6217 0.898 0.25
8.8351 0.898 0.25
8.8351 0.898 0.25
8.0033 0.9671 0.25
8.2116 0.9671 0.25
8.4199 0.9671 0.25
8.6281 0.9671 0.25
8.8364 0.9671 0.25
8.8364 0.9671 0.25
8.025 1.0362 0.25
8.2282 1.0362 0.25
8.4314 1.0362 0.25
8.6346 1.0362 0.25
8.8378 1.0362 0.25
8.8378 1.0362 0.25
8.0466 1.1053 0.25
8.2448 1.1053 0.25
8.4429 1.1053 0.25
8.641 1.1053 0.25
8.8391 1.1053 0.25
8.8391 1.1053 0.25
8.0683 1.1744 0.25
8.2613 1.1744 0.25
8.4544 1.1744 0.25
8.6474 1.1744 0.25
8.8405 1.1744 0.25
8.8405 1.1744 0.25
8.09 1.2434 0.25
8.2779 1.2434 0.25
8.4659 1.2434 0.25
8.6538 1.2434 0.25
8.8418 1.2434 0.25
8.8418 1.2434 0.25
8.1116 1.3125 0.25
8.2945 1.3125 0.25
8.4774 1.3125 0.25
8.6603 1.3125 0.25
8.8431 1.3125 0.25
8.8431 1.3125 0.25
8.1333 1.3816 0.25
8.3111 1.3816 0.25
8.4889 1.3816 0.25
8.6667 1.3816 0.25
8.8445 1.3816 0.25
8.8445 1.3816 0.25
8.155 1.4507 0.25
8.3277 1.4507 0.25
8.5004 1.4507 0.25
8.6731 1.4507 0.25
8.8458 1.4507 0.25
8.8458 1.4507 0.25
8.1766 1.5198 0.25
8.3443 1.5198 0.25
8.5119 1.5198 0.25
8.6795 1.5198 0.25
8.8472 1.5198 0.25
8.8472 1.5198 0.25
8.1983 1.5888 0.25
8.3608 1.5888 0.25
8.5234 1.5888 0.25
8.686 1.5888 0.25
8.8485 1.5888 0.25
8.8485 1.5888 0.25
8.22 1.6579 0.25
8.3774 1.6579 0.25
8.5349 1.6579 0.25
8.6924 1.6579 0.25
8.8499 1.6579 0.25
8.8499 1.6579 0.25
8.2416 1.727 0.25
8.394 1.727 0.25
8.5464 1.727 0.25
8.6988 1.727 0.25
8.8512 1.727 0.25
8.8512 1.727 0.25

CELLS 125 625
4 0 1 7 6
4 1 2 8 7
4 2 3 9 8
4 3 4 10 9
4 4 5 11 10
4 6 7 13 12
4 7 8 14 13
4 8 9 15 14
4 9 10 16 15
4 10 11 17 16
4 12 13 19 18
4 13 14 20 19
4 14 15 21 20
4 15 16 22 21
4 16 17 23 22
4 18 19 25 24
4 19 20 26 25
4 20 21 27 26
4 21 22 28 27
4 22 23 29 28
4 24 25 31 30
4 25 26 32 31
4 26 27 33 32
4 27 28 34 33
4 28 29 35 34
4 30 31 37 36
4 31 32 38 37
4 32 33 39 38
4 33 34 40 39
4 34 35 41 40
4 36 37 43 42
4 37 38 44 43
4 38 39 45 44
4 39 40 46 45
4 40 41 47 46
4 42 43 49 48
4 43 44 50 49
4 44 45 51 50
4 45 46 52 51
4 46 47 53 52
4 48 49 55 54
4 49 50 56 55
4 50 51 57 56
4 51 52 58 57
4 52 53 59 58
4 54 55 61 60
4 55 56 62 61
4 56 57 63 62
4 57 58 64 63
4 58 59 65 64
4 60 61 67 66
4 61 62 68 67
4 62 63 69 68
4 63 64 70 69
4 64 65 71 70
4 66 67 73 72
4 67 68 74 73
4 68 69 75 74
4 69 70 76 75
4 70 71 77 76
4 72 73 79 78
4 73 74 80 79
4 74 75 81 80
4 75 76 82 81
4 76 77 83 82
4 78 79 85 84
4 79 80 86 85
4 80 81 87 86
4 81 82 88 87
4 82 83 89 88
4 84 85 91 90
4 85 86 92 91
4 86 87 93 92
4 87 88 94 93
4 88 89 95 94
4 90 91 97 96
4 91 92 98 97
4 92 93 99 98
4 93 94 100 99
4 94 95 101 100
4 96 97 103 102
4 97 98 104 103
4 98 99 105 104
4 99 100 106 105
4 100 101 107 106
4 102 103 109 108
4 103 104 110 109
4 104 105 111 110
4 105 106 112 111
4 106 107 113 112
4 108 109 115 114
4 109 110 116 115
4 110 111 117 116
4 111 112 118 117
4 112 113 119 118
4 114 115 121 120
4 115 116 122 121
4 116 117 123 122
4 117 118 124 123
4 118 119 125 124
4 120 121 127 126
4 121 122 128 127
4 122 123 129 128
4 123 124 130 129
4 124 125 131 130
4 126 127 133 132
4 127 128 134 133
4 128 129 135 134
4 129 130 136 135
4 130 131 137 136
4 132 133 139 138
4 133 134 140 139
4 134 135 141 140
4 135 136 142 141
4 136 137 143 142
4 138 139 145 144
4 139 140 146 145
4 140 141 147 146
4 141 142 148 147
4 142 143 149 148
4 144 145 151 150
4 145 146 152 151
4 146 147 153 152
4 147 148 154 153
4 148 149 155 154

CELL_TYPES 125
9
9
9
9
9
9
9
9
9
9
9
9
9
9
9
9
9
9
9
9
9
9
9
9
9
9
9
9
9
9
9
9
9
9
9
9
9
9
9
9
9
9
9
9
9
9
9
9
9
9
9
9
9
9
9
9
9
9
9
9
9
9
9
9
9
9
9
9
9
9
9
9
9
9
9
9
9
9
9
9
9
9
9
9
9
9
9
9
9
9
9
9
9
9
9
9
9
9
9
9
9
9
9
9
9
9
9
9
9
9
9
9
9
9
9
9
9
9
9
9
9
9
9
9
9

CELL_DATA 125
SCALARS i float 1
LOOKUP_TABLE default
0
1
2
3
4
5
6
7
8
9
10
11
12
13
14
15
16
17
18
19
20
21
22
23
24
25
26
27
28
29
30
31
32
33
34
35
36
37
38
39
40
41
42
43
44
45
46
47
48
49
50
51
52
53
54
55
56
57
58
59
60
61
62
63
64
65
66
67
68
69
70
71
72
73
74
75
76
77
78
79
80
81
82
83
84
85
86
87
88
89
90
91
92
93
94
95
96
97
98
99
100
101
102
103
104
105
106
107
108
109
110
111
112
113
114
115
116
117
118
119
120
121
122
123
124
SCALARS cl float 1
LOOKUP_TABLE default
1.3094405936410378
1.3094405936410378
1.3094405936410378
1.3094405936410378
1.3094405936410378
1.3157991547513124
1.3157991547513124
1.3157991547513124
1.3157991547513124
1.3157991547513124
1.314667028075656
1.314667028075656
1.314667028075656
1.314667028075656
1.314667028075656
1.3087819455525467
1.3087819455525467
1.3087819455525467
1.3087819455525467
1.3087819455525467
1.29949026059925
1.29949026059925
1.29949026059925
1.29949026059925
1.29949026059925
1.2875581815098187
1.2875581815098187
1.2875581815098187
1.2875581815098187
1.2875581815098187
1.273430406121519
1.273430406121519
1.273430406121519
1.273430406121519
1.273430406121519
1.2573381011310083
1.2573381011310083
1.2573381011310083
1.2573381011310083
1.2573381011310083
1.2393541226080356
1.2393541226080356
1.2393541226080356
1.2393541226080356
1.2393541226080356
1.2194072022936229
1.2194072022936229
1.2194072022936229
1.2194072022936229
1.2194072022936229
1.1972786157721191
1.1972786157721191
1.1972786157721191
1.1972786157721191
1.1972786157721191
1.1725980752413685
1.1725980752413685
1.1725980752413685
1.1725980752413685
1.1725980752413685
1.1448113719494095
1.1448113719494095
1.1448113719494095
1.1448113719494095
1.1448113719494095
1.1131564934433553
1.1131564934433553
1.1131564934433553
1.1131564934433553
1.1131564934433553
1.0766349176023982
1.0766349176023982
1.0766349176023982
1.0766349176023982
1.0766349176023982
1.0339865447589371
1.0339865447589371
1.0339865447589371
1.0339865447589371
1.0339865447589371
0.9836846655074435
0.9836846655074435
0.9836846655074435
0.9836846655074435
0.9836846655074435
0.9239919110113752
0.9239919110113752
0.9239919110113752
0.9239919110113752
0.9239919110113752
0.8531087227302951
0.8531087227302951
0.8531087227302951
0.8531087227302951
0.8531087227302951
0.7694364604777746
0.7694364604777746
0.7694364604777746
0.7694364604777746
0.7694364604777746
0.6719928411144469
0.6719928411144469
0.6719928411144469
0.6719928411144469
0.6719928411144469
0.5608581213913958
0.5608581213913958
0.5608581213913958
0.5608581213913958
0.5608581213913958
0.43756627837188
0.43756627837188
0.43756627837188
0.43756627837188
0.43756627837188
0.3058055819555917
0.3058055819555917
0.3058055819555917
0.3058055819555917
0.3058055819555917
0.17759484290421795
0.17759484290421795
0.17759484290421795
0.17759484290421795
0.17759484290421795
SCALARS Cl/CL float 1
LOOKUP_TABLE default
2.2166600625175126
2.2166600625175126
2.2166600625175126
2.2166600625175126
2.2166600625175126
2.2274240242708525
2.2274240242708525
2.2274240242708525
2.2274240242708525
2.2274240242708525
2.2255075264932325
2.2255075264932325
2.2255075264932325
2.2255075264932325
2.2255075264932325
2.2155450834034527
2.2155450834034527
2.2155450834034527
2.2155450834034527
2.2155450834034527
2.199815842191985
2.199815842191985
2.199815842191985
2.199815842191985
2.199815842191985
2.1796168630945085
2.1796168630945085
2.1796168630945085
2.1796168630945085
2.1796168630945085
2.1557009438633936
2.1557009438633936
2.1557009438633936
2.1557009438633936
2.1557009438633936
2.1284594103722645
2.1284594103722645
2.1284594103722645
2.1284594103722645
2.1284594103722645
2.0980155955473405
2.0980155955473405
2.0980155955473405
2.0980155955473405
2.0980155955473405
2.0642488543557973
2.0642488543557973
2.0642488543557973
2.0642488543557973
2.0642488543557973
2.026788923588119
2.026788923588119
2.026788923588119
2.026788923588119
2.026788923588119
1.985008969017032
1.985008969017032
1.985008969017032
1.985008969017032
1.985008969017032
1.937970809549987
1.937970809549987
1.937970809549987
1.937970809549987
1.937970809549987
1.8843844877962794
1.8843844877962794
1.8843844877962794
1.8843844877962794
1.8843844877962794
1.8225596757505893
1.8225596757505893
1.8225596757505893
1.8225596757505893
1.8225596757505893
1.7503632391405202
1.7503632391405202
1.7503632391405202
1.7503632391405202
1.7503632391405202
1.6652107187834715
1.6652107187834715
1.6652107187834715
1.6652107187834715
1.6652107187834715
1.5641610449336854
1.5641610449336854
1.5641610449336854
1.5641610449336854
1.5641610449336854
1.4441678712611938
1.4441678712611938
1.4441678712611938
1.4441678712611938
1.4441678712611938
1.3025249720137169
1.3025249720137169
1.3025249720137169
1.3025249720137169
1.3025249720137169
1.1375695090176923
1.1375695090176923
1.1375695090176923
1.1375695090176923
1.1375695090176923
0.9494373432932676
0.9494373432932676
0.9494373432932676
0.9494373432932676
0.9494373432932676
0.7407252369306486
0.7407252369306486
0.7407252369306486
0.7407252369306486
0.7407252369306486
0.5176768031385108
0.5176768031385108
0.5176768031385108
0.5176768031385108
0.5176768031385108
0.3006378429740122
0.3006378429740122
0.3006378429740122
0.3006378429740122
0.3006378429740122
SCALARS cd float 1
LOOKUP_TABLE default
0.1182393959568918
0.1182393959568918
0.1182393959568918
0.1182393959568918
0.1182393959568918
0.11459695197717856
0.11459695197717856
0.11459695197717856
0.11459695197717856
0.11459695197717856
0.11099711699968326
0.11099711699968326
0.11099711699968326
0.11099711699968326
0.11099711699968326
0.10751551151839397
0.10751551151839397
0.10751551151839397
0.10751551151839397
0.10751551151839397
0.10420067489774228
0.10420067489774228
0.10420067489774228
0.10420067489774228
0.10420067489774228
0.10107584669369782
0.10107584669369782
0.10107584669369782
0.10107584669369782
0.10107584669369782
0.09815602405048658
0.09815602405048658
0.09815602405048658
0.09815602405048658
0.09815602405048658
0.09544756082136092
0.09544756082136092
0.09544756082136092
0.09544756082136092
0.09544756082136092
0.09295545785108669
0.09295545785108669
0.09295545785108669
0.09295545785108669
0.09295545785108669
0.09068589082244921
0.09068589082244921
0.09068589082244921
0.09068589082244921
0.09068589082244921
0.08863934844985441
0.08863934844985441
0.08863934844985441
0.08863934844985441
0.08863934844985441
0.08681167610010473
0.08681167610010473
0.08681167610010473
0.08681167610010473
0.08681167610010473
0.0851889082322585
0.0851889082322585
0.0851889082322585
0.0851889082322585
0.0851889082322585
0.08374364264521347
0.08374364264521347
0.08374364264521347
0.08374364264521347
0.08374364264521347
0.08242211498989466
0.08242211498989466
0.08242211498989466
0.08242211498989466
0.08242211498989466
0.08113158627718157
0.08113158627718157
0.08113158627718157
0.08113158627718157
0.08113158627718157
0.07972691159416868
0.07972691159416868
0.07972691159416868
0.07972691159416868
0.07972691159416868
0.07799613738598038
0.07799613738598038
0.07799613738598038
0.07799613738598038
0.07799613738598038
0.0756624959638693
0.0756624959638693
0.0756624959638693
0.0756624959638693
0.0756624959638693
0.07240477538165851
0.07240477538165851
0.07240477538165851
0.07240477538165851
0.07240477538165851
0.06790415588256224
0.06790415588256224
0.06790415588256224
0.06790415588256224
0.06790415588256224
0.06187606422813743
0.06187606422813743
0.06187606422813743
0.06187606422813743
0.06187606422813743
0.05395432707375199
0.05395432707375199
0.05395432707375199
0.05395432707375199
0.05395432707375199
0.043258115130189276
0.043258115130189276
0.043258115130189276
0.043258115130189276
0.043258115130189276
0.028992534584774087
0.028992534584774087
0.028992534584774087
0.028992534584774087
0.028992534584774087
SCALARS cd_CD float 1
LOOKUP_TABLE default
1.7319100949913582
1.7319100949913582
1.7319100949913582
1.7319100949913582
1.7319100949913582
1.6785574416912197
1.6785574416912197
1.6785574416912197
1.6785574416912197
1.6785574416912197
1.625828903225917
1.625828903225917
1.625828903225917
1.625828903225917
1.625828903225917
1.574832129849127
1.574832129849127
1.574832129849127
1.574832129849127
1.574832129849127
1.5262781013031186
1.5262781013031186
1.5262781013031186
1.5262781013031186
1.5262781013031186
1.4805072186975325
1.4805072186975325
1.4805072186975325
1.4805072186975325
1.4805072186975325
1.4377391525175804
1.4377391525175804
1.4377391525175804
1.4377391525175804
1.4377391525175804
1.3980669707504663
1.3980669707504663
1.3980669707504663
1.3980669707504663
1.3980669707504663
1.3615639232082624
1.3615639232082624
1.3615639232082624
1.3615639232082624
1.3615639232082624
1.3283204681284524
1.3283204681284524
1.3283204681284524
1.3283204681284524
1.3283204681284524
1.2983437639492739
1.2983437639492739
1.2983437639492739
1.2983437639492739
1.2983437639492739
1.2715729557321709
1.2715729557321709
1.2715729557321709
1.2715729557321709
1.2715729557321709
1.247803483388324
1.247803483388324
1.247803483388324
1.247803483388324
1.247803483388324
1.2266339735148173
1.2266339735148173
1.2266339735148173
1.2266339735148173
1.2266339735148173
1.2072769134712142
1.2072769134712142
1.2072769134712142
1.2072769134712142
1.2072769134712142
1.1883739100573703
1.1883739100573703
1.1883739100573703
1.1883739100573703
1.1883739100573703
1.1677989549503958
1.1677989549503958
1.1677989549503958
1.1677989549503958
1.1677989549503958
1.1424474610675546
1.1424474610675546
1.1424474610675546
1.1424474610675546
1.1424474610675546
1.1082654770990497
1.1082654770990497
1.1082654770990497
1.1082654770990497
1.1082654770990497
1.0605480550221558
1.0605480550221558
1.0605480550221558
1.0605480550221558
1.0605480550221558
0.9946252863787707
0.9946252863787707
0.9946252863787707
0.9946252863787707
0.9946252863787707
0.9063288881661327
0.9063288881661327
0.9063288881661327
0.9063288881661327
0.9063288881661327
0.7902953408317887
0.7902953408317887
0.7902953408317887
0.7902953408317887
0.7902953408317887
0.6336227082180592
0.6336227082180592
0.6336227082180592
0.6336227082180592
0.6336227082180592
0.42466779300076085
0.42466779300076085
0.42466779300076085
0.42466779300076085
0.42466779300076085