# vtk DataFile Version 4.0
SUAVE Model of PROWIM Wing 
ASCII
DATASET UNSTRUCTURED_GRID

POINTS 156 float
6.75 0.0 0.623
7.0853 0.0 0.623
7.4206 0.0 0.623
7.7558 0.0 0.623
8.0911 0.0 0.623
8.4264 0.0 0.623
6.7945 0.0 0.6972
7.1218 0.0 0.6972
7.4492 0.0 0.6972
7.7766 0.0 0.6972
8.1039 0.0 0.6972
8.4313 0.0 0.6972
6.839 0.0 0.7713
7.1584 0.0 0.7713
7.4778 0.0 0.7713
7.7973 0.0 0.7713
8.1167 0.0 0.7713
8.4361 0.0 0.7713
6.8835 0.0 0.8455
7.195 0.0 0.8455
7.5065 0.0 0.8455
7.818 0.0 0.8455
8.1295 0.0 0.8455
8.441 0.0 0.8455
6.9279 0.0 0.9196
7.2315 0.0 0.9196
7.5351 0.0 0.9196
7.8387 0.0 0.9196
8.1423 0.0 0.9196
8.4459 0.0 0.9196
6.9724 0.0 0.9938
7.2681 0.0 0.9938
7.5637 0.0 0.9938
7.8594 0.0 0.9938
8.1551 0.0 0.9938
8.4507 0.0 0.9938
7.0169 0.0 1.068
7.3047 0.0 1.068
7.5924 0.0 1.068
7.8801 0.0 1.068
8.1678 0.0 1.068
8.4556 0.0 1.068
7.0614 0.0 1.1421
7.3412 0.0 1.1421
7.621 0.0 1.1421
7.9008 0.0 1.1421
8.1806 0.0 1.1421
8.4604 0.0 1.1421
7.1059 0.0 1.2163
7.3778 0.0 1.2163
7.6497 0.0 1.2163
7.9215 0.0 1.2163
8.1934 0.0 1.2163
8.4653 0.0 1.2163
7.1504 0.0 1.2904
7.4143 0.0 1.2904
7.6783 0.0 1.2904
7.9423 0.0 1.2904
8.2062 0.0 1.2904
8.4702 0.0 1.2904
7.1949 0.0 1.3646
7.4509 0.0 1.3646
7.7069 0.0 1.3646
7.963 0.0 1.3646
8.219 0.0 1.3646
8.475 0.0 1.3646
7.2394 0.0 1.4388
7.4875 0.0 1.4388
7.7356 0.0 1.4388
7.9837 0.0 1.4388
8.2318 0.0 1.4388
8.4799 0.0 1.4388
7.2838 0.0 1.5129
7.524 0.0 1.5129
7.7642 0.0 1.5129
8.0044 0.0 1.5129
8.2446 0.0 1.5129
8.4848 0.0 1.5129
7.3283 0.0 1.5871
7.5606 0.0 1.5871
7.7929 0.0 1.5871
8.0251 0.0 1.5871
8.2574 0.0 1.5871
8.4896 0.0 1.5871
7.3728 0.0 1.6612
7.5972 0.0 1.6612
7.8215 0.0 1.6612
8.0458 0.0 1.6612
8.2702 0.0 1.6612
8.4945 0.0 1.6612
7.4173 0.0 1.7354
7.6337 0.0 1.7354
7.8501 0.0 1.7354
8.0665 0.0 1.7354
8.2829 0.0 1.7354
8.4994 0.0 1.7354
7.4618 0.0 1.8096
7.6703 0.0 1.8096
7.8788 0.0 1.8096
8.0872 0.0 1.8096
8.2957 0.0 1.8096
8.5042 0.0 1.8096
7.5063 0.0 1.8837
7.7068 0.0 1.8837
7.9074 0.0 1.8837
8.108 0.0 1.8837
8.3085 0.0 1.8837
8.5091 0.0 1.8837
7.5508 0.0 1.9579
7.7434 0.0 1.9579
7.936 0.0 1.9579
8.1287 0.0 1.9579
8.3213 0.0 1.9579
8.5139 0.0 1.9579
7.5953 0.0 2.032
7.78 0.0 2.032
7.9647 0.0 2.032
8.1494 0.0 2.032
8.3341 0.0 2.032
8.5188 0.0 2.032
7.6397 0.0 2.1062
7.8165 0.0 2.1062
7.9933 0.0 2.1062
8.1701 0.0 2.1062
8.3469 0.0 2.1062
8.5237 0.0 2.1062
7.6842 0.0 2.1804
7.8531 0.0 2.1804
8.022 0.0 2.1804
8.1908 0.0 2.1804
8.3597 0.0 2.1804
8.5285 0.0 2.1804
7.7287 0.0 2.2545
7.8897 0.0 2.2545
8.0506 0.0 2.2545
8.2115 0.0 2.2545
8.3725 0.0 2.2545
8.5334 0.0 2.2545
7.7732 0.0 2.3287
7.9262 0.0 2.3287
8.0792 0.0 2.3287
8.2322 0.0 2.3287
8.3852 0.0 2.3287
8.5383 0.0 2.3287
7.8177 0.0 2.4028
7.9628 0.0 2.4028
8.1079 0.0 2.4028
8.253 0.0 2.4028
8.398 0.0 2.4028
8.5431 0.0 2.4028
7.8622 0.0 2.477
7.9993 0.0 2.477
8.1365 0.0 2.477
8.2737 0.0 2.477
8.4108 0.0 2.477
8.548 0.0 2.477

CELLS 125 625
4 0 1 7 6
4 1 2 8 7
4 2 3 9 8
4 3 4 10 9
4 4 5 11 10
4 6 7 13 12
4 7 8 14 13
4 8 9 15 14
4 9 10 16 15
4 10 11 17 16
4 12 13 19 18
4 13 14 20 19
4 14 15 21 20
4 15 16 22 21
4 16 17 23 22
4 18 19 25 24
4 19 20 26 25
4 20 21 27 26
4 21 22 28 27
4 22 23 29 28
4 24 25 31 30
4 25 26 32 31
4 26 27 33 32
4 27 28 34 33
4 28 29 35 34
4 30 31 37 36
4 31 32 38 37
4 32 33 39 38
4 33 34 40 39
4 34 35 41 40
4 36 37 43 42
4 37 38 44 43
4 38 39 45 44
4 39 40 46 45
4 40 41 47 46
4 42 43 49 48
4 43 44 50 49
4 44 45 51 50
4 45 46 52 51
4 46 47 53 52
4 48 49 55 54
4 49 50 56 55
4 50 51 57 56
4 51 52 58 57
4 52 53 59 58
4 54 55 61 60
4 55 56 62 61
4 56 57 63 62
4 57 58 64 63
4 58 59 65 64
4 60 61 67 66
4 61 62 68 67
4 62 63 69 68
4 63 64 70 69
4 64 65 71 70
4 66 67 73 72
4 67 68 74 73
4 68 69 75 74
4 69 70 76 75
4 70 71 77 76
4 72 73 79 78
4 73 74 80 79
4 74 75 81 80
4 75 76 82 81
4 76 77 83 82
4 78 79 85 84
4 79 80 86 85
4 80 81 87 86
4 81 82 88 87
4 82 83 89 88
4 84 85 91 90
4 85 86 92 91
4 86 87 93 92
4 87 88 94 93
4 88 89 95 94
4 90 91 97 96
4 91 92 98 97
4 92 93 99 98
4 93 94 100 99
4 94 95 101 100
4 96 97 103 102
4 97 98 104 103
4 98 99 105 104
4 99 100 106 105
4 100 101 107 106
4 102 103 109 108
4 103 104 110 109
4 104 105 111 110
4 105 106 112 111
4 106 107 113 112
4 108 109 115 114
4 109 110 116 115
4 110 111 117 116
4 111 112 118 117
4 112 113 119 118
4 114 115 121 120
4 115 116 122 121
4 116 117 123 122
4 117 118 124 123
4 118 119 125 124
4 120 121 127 126
4 121 122 128 127
4 122 123 129 128
4 123 124 130 129
4 124 125 131 130
4 126 127 133 132
4 127 128 134 133
4 128 129 135 134
4 129 130 136 135
4 130 131 137 136
4 132 133 139 138
4 133 134 140 139
4 134 135 141 140
4 135 136 142 141
4 136 137 143 142
4 138 139 145 144
4 139 140 146 145
4 140 141 147 146
4 141 142 148 147
4 142 143 149 148
4 144 145 151 150
4 145 146 152 151
4 146 147 153 152
4 147 148 154 153
4 148 149 155 154

CELL_TYPES 125
9
9
9
9
9
9
9
9
9
9
9
9
9
9
9
9
9
9
9
9
9
9
9
9
9
9
9
9
9
9
9
9
9
9
9
9
9
9
9
9
9
9
9
9
9
9
9
9
9
9
9
9
9
9
9
9
9
9
9
9
9
9
9
9
9
9
9
9
9
9
9
9
9
9
9
9
9
9
9
9
9
9
9
9
9
9
9
9
9
9
9
9
9
9
9
9
9
9
9
9
9
9
9
9
9
9
9
9
9
9
9
9
9
9
9
9
9
9
9
9
9
9
9
9
9

CELL_DATA 125
SCALARS i float 1
LOOKUP_TABLE default
0
1
2
3
4
5
6
7
8
9
10
11
12
13
14
15
16
17
18
19
20
21
22
23
24
25
26
27
28
29
30
31
32
33
34
35
36
37
38
39
40
41
42
43
44
45
46
47
48
49
50
51
52
53
54
55
56
57
58
59
60
61
62
63
64
65
66
67
68
69
70
71
72
73
74
75
76
77
78
79
80
81
82
83
84
85
86
87
88
89
90
91
92
93
94
95
96
97
98
99
100
101
102
103
104
105
106
107
108
109
110
111
112
113
114
115
116
117
118
119
120
121
122
123
124
SCALARS cl float 1
LOOKUP_TABLE default
0.8610266427777453
0.8610266427777453
0.8610266427777453
0.8610266427777453
0.8610266427777453
0.8624637530548855
0.8624637530548855
0.8624637530548855
0.8624637530548855
0.8624637530548855
0.8578908113946323
0.8578908113946323
0.8578908113946323
0.8578908113946323
0.8578908113946323
0.8495947183286816
0.8495947183286816
0.8495947183286816
0.8495947183286816
0.8495947183286816
0.8387316461351547
0.8387316461351547
0.8387316461351547
0.8387316461351547
0.8387316461351547
0.8259821329256924
0.8259821329256924
0.8259821329256924
0.8259821329256924
0.8259821329256924
0.8117680618652564
0.8117680618652564
0.8117680618652564
0.8117680618652564
0.8117680618652564
0.7963443985094548
0.7963443985094548
0.7963443985094548
0.7963443985094548
0.7963443985094548
0.7798491043192938
0.7798491043192938
0.7798491043192938
0.7798491043192938
0.7798491043192938
0.7623200647825253
0.7623200647825253
0.7623200647825253
0.7623200647825253
0.7623200647825253
0.7436955166959438
0.7436955166959438
0.7436955166959438
0.7436955166959438
0.7436955166959438
0.7238187723505098
0.7238187723505098
0.7238187723505098
0.7238187723505098
0.7238187723505098
0.7024184172188211
0.7024184172188211
0.7024184172188211
0.7024184172188211
0.7024184172188211
0.679094522625692
0.679094522625692
0.679094522625692
0.679094522625692
0.679094522625692
0.6533054295516009
0.6533054295516009
0.6533054295516009
0.6533054295516009
0.6533054295516009
0.6243493664582688
0.6243493664582688
0.6243493664582688
0.6243493664582688
0.6243493664582688
0.5913610875468794
0.5913610875468794
0.5913610875468794
0.5913610875468794
0.5913610875468794
0.5533429771323891
0.5533429771323891
0.5533429771323891
0.5533429771323891
0.5533429771323891
0.5092492235496489
0.5092492235496489
0.5092492235496489
0.5092492235496489
0.5092492235496489
0.4581373294070695
0.4581373294070695
0.4581373294070695
0.4581373294070695
0.4581373294070695
0.39940628391904803
0.39940628391904803
0.39940628391904803
0.39940628391904803
0.39940628391904803
0.33305117976100124
0.33305117976100124
0.33305117976100124
0.33305117976100124
0.33305117976100124
0.2598771673425972
0.2598771673425972
0.2598771673425972
0.2598771673425972
0.2598771673425972
0.18187535820861403
0.18187535820861403
0.18187535820861403
0.18187535820861403
0.18187535820861403
0.1058814241324496
0.1058814241324496
0.1058814241324496
0.1058814241324496
0.1058814241324496
SCALARS Cl/CL float 1
LOOKUP_TABLE default
2.3666680177641752
2.3666680177641752
2.3666680177641752
2.3666680177641752
2.3666680177641752
2.370618142838047
2.370618142838047
2.370618142838047
2.370618142838047
2.370618142838047
2.3580486888435597
2.3580486888435597
2.3580486888435597
2.3580486888435597
2.3580486888435597
2.3352455638807372
2.3352455638807372
2.3352455638807372
2.3352455638807372
2.3352455638807372
2.3053866904640645
2.3053866904640645
2.3053866904640645
2.3053866904640645
2.3053866904640645
2.2703426353143272
2.2703426353143272
2.2703426353143272
2.2703426353143272
2.2703426353143272
2.2312730110894186
2.2312730110894186
2.2312730110894186
2.2312730110894186
2.2312730110894186
2.1888786309768866
2.1888786309768866
2.1888786309768866
2.1888786309768866
2.1888786309768866
2.1435387038899356
2.1435387038899356
2.1435387038899356
2.1435387038899356
2.1435387038899356
2.0953573640884655
2.0953573640884655
2.0953573640884655
2.0953573640884655
2.0953573640884655
2.0441648456320984
2.0441648456320984
2.0441648456320984
2.0441648456320984
2.0441648456320984
1.989530467550773
1.989530467550773
1.989530467550773
1.989530467550773
1.989530467550773
1.930708204054292
1.930708204054292
1.930708204054292
1.930708204054292
1.930708204054292
1.8665987878750412
1.8665987878750412
1.8665987878750412
1.8665987878750412
1.8665987878750412
1.7957133834598031
1.7957133834598031
1.7957133834598031
1.7957133834598031
1.7957133834598031
1.716123060653683
1.716123060653683
1.716123060653683
1.716123060653683
1.716123060653683
1.6254495544207033
1.6254495544207033
1.6254495544207033
1.6254495544207033
1.6254495544207033
1.5209507601400405
1.5209507601400405
1.5209507601400405
1.5209507601400405
1.5209507601400405
1.3997520989107122
1.3997520989107122
1.3997520989107122
1.3997520989107122
1.3997520989107122
1.259262967466013
1.259262967466013
1.259262967466013
1.259262967466013
1.259262967466013
1.0978313925289849
1.0978313925289849
1.0978313925289849
1.0978313925289849
1.0978313925289849
0.9154438855412406
0.9154438855412406
0.9154438855412406
0.9154438855412406
0.9154438855412406
0.7143135298493114
0.7143135298493114
0.7143135298493114
0.7143135298493114
0.7143135298493114
0.4999132107028632
0.4999132107028632
0.4999132107028632
0.4999132107028632
0.4999132107028632
0.29103185397513376
0.29103185397513376
0.29103185397513376
0.29103185397513376
0.29103185397513376
SCALARS cd float 1
LOOKUP_TABLE default
0.05001028949207496
0.05001028949207496
0.05001028949207496
0.05001028949207496
0.05001028949207496
0.0476676173978194
0.0476676173978194
0.0476676173978194
0.0476676173978194
0.0476676173978194
0.04540166251482866
0.04540166251482866
0.04540166251482866
0.04540166251482866
0.04540166251482866
0.043235390858620555
0.043235390858620555
0.043235390858620555
0.043235390858620555
0.043235390858620555
0.04118821372014445
0.04118821372014445
0.04118821372014445
0.04118821372014445
0.04118821372014445
0.03926853382791072
0.03926853382791072
0.03926853382791072
0.03926853382791072
0.03926853382791072
0.037481192392009526
0.037481192392009526
0.037481192392009526
0.037481192392009526
0.037481192392009526
0.03582656317556478
0.03582656317556478
0.03582656317556478
0.03582656317556478
0.03582656317556478
0.034304944401245416
0.034304944401245416
0.034304944401245416
0.034304944401245416
0.034304944401245416
0.03291726632053386
0.03291726632053386
0.03291726632053386
0.03291726632053386
0.03291726632053386
0.03166210907906229
0.03166210907906229
0.03166210907906229
0.03166210907906229
0.03166210907906229
0.03053714679419415
0.03053714679419415
0.03053714679419415
0.03053714679419415
0.03053714679419415
0.029536802248718796
0.029536802248718796
0.029536802248718796
0.029536802248718796
0.029536802248718796
0.028651614253159922
0.028651614253159922
0.028651614253159922
0.028651614253159922
0.028651614253159922
0.027863552325096522
0.027863552325096522
0.027863552325096522
0.027863552325096522
0.027863552325096522
0.02714219111512442
0.02714219111512442
0.02714219111512442
0.02714219111512442
0.02714219111512442
0.026440221170159872
0.026440221170159872
0.026440221170159872
0.026440221170159872
0.026440221170159872
0.025688460807313546
0.025688460807313546
0.025688460807313546
0.025688460807313546
0.025688460807313546
0.024796695443549545
0.024796695443549545
0.024796695443549545
0.024796695443549545
0.024796695443549545
0.023659725732371687
0.023659725732371687
0.023659725732371687
0.023659725732371687
0.023659725732371687
0.022171687999964565
0.022171687999964565
0.022171687999964565
0.022171687999964565
0.022171687999964565
0.02023406553184356
0.02023406553184356
0.02023406553184356
0.02023406553184356
0.02023406553184356
0.017712234635572977
0.017712234635572977
0.017712234635572977
0.017712234635572977
0.017712234635572977
0.01428287723298846
0.01428287723298846
0.01428287723298846
0.01428287723298846
0.01428287723298846
0.00963163006329551
0.00963163006329551
0.00963163006329551
0.00963163006329551
0.00963163006329551
SCALARS cd_CD float 1
LOOKUP_TABLE default
1.5297314529483244
1.5297314529483244
1.5297314529483244
1.5297314529483244
1.5297314529483244
1.458073015796207
1.458073015796207
1.458073015796207
1.458073015796207
1.458073015796207
1.388761230348093
1.388761230348093
1.388761230348093
1.388761230348093
1.388761230348093
1.322498588763962
1.322498588763962
1.322498588763962
1.322498588763962
1.322498588763962
1.2598788501003833
1.2598788501003833
1.2598788501003833
1.2598788501003833
1.2598788501003833
1.2011590398259848
1.2011590398259848
1.2011590398259848
1.2011590398259848
1.2011590398259848
1.1464872424933747
1.1464872424933747
1.1464872424933747
1.1464872424933747
1.1464872424933747
1.0958748908939329
1.0958748908939329
1.0958748908939329
1.0958748908939329
1.0958748908939329
1.0493311071623497
1.0493311071623497
1.0493311071623497
1.0493311071623497
1.0493311071623497
1.0068843461419434
1.0068843461419434
1.0068843461419434
1.0068843461419434
1.0068843461419434
0.9684911768526681
0.9684911768526681
0.9684911768526681
0.9684911768526681
0.9684911768526681
0.9340804544189153
0.9340804544189153
0.9340804544189153
0.9340804544189153
0.9340804544189153
0.9034815810562358
0.9034815810562358
0.9034815810562358
0.9034815810562358
0.9034815810562358
0.8764051547381424
0.8764051547381424
0.8764051547381424
0.8764051547381424
0.8764051547381424
0.8522996530409223
0.8522996530409223
0.8522996530409223
0.8522996530409223
0.8522996530409223
0.8302344152060952
0.8302344152060952
0.8302344152060952
0.8302344152060952
0.8302344152060952
0.8087623238676349
0.8087623238676349
0.8087623238676349
0.8087623238676349
0.8087623238676349
0.785767226582543
0.785767226582543
0.785767226582543
0.785767226582543
0.785767226582543
0.7584896095270395
0.7584896095270395
0.7584896095270395
0.7584896095270395
0.7584896095270395
0.7237115999233567
0.7237115999233567
0.7237115999233567
0.7237115999233567
0.7237115999233567
0.6781950043276084
0.6781950043276084
0.6781950043276084
0.6781950043276084
0.6781950043276084
0.6189263605439372
0.6189263605439372
0.6189263605439372
0.6189263605439372
0.6189263605439372
0.5417877540646985
0.5417877540646985
0.5417877540646985
0.5417877540646985
0.5417877540646985
0.4368894234328387
0.4368894234328387
0.4368894234328387
0.4368894234328387
0.4368894234328387
0.29461552013852355
0.29461552013852355
0.29461552013852355
0.29461552013852355
0.29461552013852355