# vtk DataFile Version 4.0
SUAVE Model of PROWIM Wing 
ASCII
DATASET UNSTRUCTURED_GRID

POINTS 156 float
7.7 0.0 0.25
7.9794 0.0 0.25
8.2588 0.0 0.25
8.5382 0.0 0.25
8.8176 0.0 0.25
8.8176 0.0 0.25
7.7217 0.0691 0.25
7.996 0.0691 0.25
8.2703 0.0691 0.25
8.5446 0.0691 0.25
8.8189 0.0691 0.25
8.8189 0.0691 0.25
7.7433 0.1382 0.25
8.0126 0.1382 0.25
8.2818 0.1382 0.25
8.551 0.1382 0.25
8.8203 0.1382 0.25
8.8203 0.1382 0.25
7.765 0.2072 0.25
8.0292 0.2072 0.25
8.2933 0.2072 0.25
8.5575 0.2072 0.25
8.8216 0.2072 0.25
8.8216 0.2072 0.25
7.7867 0.2763 0.25
8.0457 0.2763 0.25
8.3048 0.2763 0.25
8.5639 0.2763 0.25
8.823 0.2763 0.25
8.823 0.2763 0.25
7.8083 0.3454 0.25
8.0623 0.3454 0.25
8.3163 0.3454 0.25
8.5703 0.3454 0.25
8.8243 0.3454 0.25
8.8243 0.3454 0.25
7.83 0.4145 0.25
8.0789 0.4145 0.25
8.3278 0.4145 0.25
8.5767 0.4145 0.25
8.8257 0.4145 0.25
8.8257 0.4145 0.25
7.8517 0.4836 0.25
8.0955 0.4836 0.25
8.3393 0.4836 0.25
8.5832 0.4836 0.25
8.827 0.4836 0.25
8.827 0.4836 0.25
7.8733 0.5526 0.25
8.1121 0.5526 0.25
8.3508 0.5526 0.25
8.5896 0.5526 0.25
8.8284 0.5526 0.25
8.8284 0.5526 0.25
7.895 0.6217 0.25
8.1287 0.6217 0.25
8.3623 0.6217 0.25
8.596 0.6217 0.25
8.8297 0.6217 0.25
8.8297 0.6217 0.25
7.9166 0.6908 0.25
8.1452 0.6908 0.25
8.3738 0.6908 0.25
8.6024 0.6908 0.25
8.831 0.6908 0.25
8.831 0.6908 0.25
7.9383 0.7599 0.25
8.1618 0.7599 0.25
8.3854 0.7599 0.25
8.6089 0.7599 0.25
8.8324 0.7599 0.25
8.8324 0.7599 0.25
7.96 0.829 0.25
8.1784 0.829 0.25
8.3969 0.829 0.25
8.6153 0.829 0.25
8.8337 0.829 0.25
8.8337 0.829 0.25
7.9816 0.898 0.25
8.195 0.898 0.25
8.4084 0.898 0.25
8.6217 0.898 0.25
8.8351 0.898 0.25
8.8351 0.898 0.25
8.0033 0.9671 0.25
8.2116 0.9671 0.25
8.4199 0.9671 0.25
8.6281 0.9671 0.25
8.8364 0.9671 0.25
8.8364 0.9671 0.25
8.025 1.0362 0.25
8.2282 1.0362 0.25
8.4314 1.0362 0.25
8.6346 1.0362 0.25
8.8378 1.0362 0.25
8.8378 1.0362 0.25
8.0466 1.1053 0.25
8.2448 1.1053 0.25
8.4429 1.1053 0.25
8.641 1.1053 0.25
8.8391 1.1053 0.25
8.8391 1.1053 0.25
8.0683 1.1744 0.25
8.2613 1.1744 0.25
8.4544 1.1744 0.25
8.6474 1.1744 0.25
8.8405 1.1744 0.25
8.8405 1.1744 0.25
8.09 1.2434 0.25
8.2779 1.2434 0.25
8.4659 1.2434 0.25
8.6538 1.2434 0.25
8.8418 1.2434 0.25
8.8418 1.2434 0.25
8.1116 1.3125 0.25
8.2945 1.3125 0.25
8.4774 1.3125 0.25
8.6603 1.3125 0.25
8.8431 1.3125 0.25
8.8431 1.3125 0.25
8.1333 1.3816 0.25
8.3111 1.3816 0.25
8.4889 1.3816 0.25
8.6667 1.3816 0.25
8.8445 1.3816 0.25
8.8445 1.3816 0.25
8.155 1.4507 0.25
8.3277 1.4507 0.25
8.5004 1.4507 0.25
8.6731 1.4507 0.25
8.8458 1.4507 0.25
8.8458 1.4507 0.25
8.1766 1.5198 0.25
8.3443 1.5198 0.25
8.5119 1.5198 0.25
8.6795 1.5198 0.25
8.8472 1.5198 0.25
8.8472 1.5198 0.25
8.1983 1.5888 0.25
8.3608 1.5888 0.25
8.5234 1.5888 0.25
8.686 1.5888 0.25
8.8485 1.5888 0.25
8.8485 1.5888 0.25
8.22 1.6579 0.25
8.3774 1.6579 0.25
8.5349 1.6579 0.25
8.6924 1.6579 0.25
8.8499 1.6579 0.25
8.8499 1.6579 0.25
8.2416 1.727 0.25
8.394 1.727 0.25
8.5464 1.727 0.25
8.6988 1.727 0.25
8.8512 1.727 0.25
8.8512 1.727 0.25

CELLS 125 625
4 0 1 7 6
4 1 2 8 7
4 2 3 9 8
4 3 4 10 9
4 4 5 11 10
4 6 7 13 12
4 7 8 14 13
4 8 9 15 14
4 9 10 16 15
4 10 11 17 16
4 12 13 19 18
4 13 14 20 19
4 14 15 21 20
4 15 16 22 21
4 16 17 23 22
4 18 19 25 24
4 19 20 26 25
4 20 21 27 26
4 21 22 28 27
4 22 23 29 28
4 24 25 31 30
4 25 26 32 31
4 26 27 33 32
4 27 28 34 33
4 28 29 35 34
4 30 31 37 36
4 31 32 38 37
4 32 33 39 38
4 33 34 40 39
4 34 35 41 40
4 36 37 43 42
4 37 38 44 43
4 38 39 45 44
4 39 40 46 45
4 40 41 47 46
4 42 43 49 48
4 43 44 50 49
4 44 45 51 50
4 45 46 52 51
4 46 47 53 52
4 48 49 55 54
4 49 50 56 55
4 50 51 57 56
4 51 52 58 57
4 52 53 59 58
4 54 55 61 60
4 55 56 62 61
4 56 57 63 62
4 57 58 64 63
4 58 59 65 64
4 60 61 67 66
4 61 62 68 67
4 62 63 69 68
4 63 64 70 69
4 64 65 71 70
4 66 67 73 72
4 67 68 74 73
4 68 69 75 74
4 69 70 76 75
4 70 71 77 76
4 72 73 79 78
4 73 74 80 79
4 74 75 81 80
4 75 76 82 81
4 76 77 83 82
4 78 79 85 84
4 79 80 86 85
4 80 81 87 86
4 81 82 88 87
4 82 83 89 88
4 84 85 91 90
4 85 86 92 91
4 86 87 93 92
4 87 88 94 93
4 88 89 95 94
4 90 91 97 96
4 91 92 98 97
4 92 93 99 98
4 93 94 100 99
4 94 95 101 100
4 96 97 103 102
4 97 98 104 103
4 98 99 105 104
4 99 100 106 105
4 100 101 107 106
4 102 103 109 108
4 103 104 110 109
4 104 105 111 110
4 105 106 112 111
4 106 107 113 112
4 108 109 115 114
4 109 110 116 115
4 110 111 117 116
4 111 112 118 117
4 112 113 119 118
4 114 115 121 120
4 115 116 122 121
4 116 117 123 122
4 117 118 124 123
4 118 119 125 124
4 120 121 127 126
4 121 122 128 127
4 122 123 129 128
4 123 124 130 129
4 124 125 131 130
4 126 127 133 132
4 127 128 134 133
4 128 129 135 134
4 129 130 136 135
4 130 131 137 136
4 132 133 139 138
4 133 134 140 139
4 134 135 141 140
4 135 136 142 141
4 136 137 143 142
4 138 139 145 144
4 139 140 146 145
4 140 141 147 146
4 141 142 148 147
4 142 143 149 148
4 144 145 151 150
4 145 146 152 151
4 146 147 153 152
4 147 148 154 153
4 148 149 155 154

CELL_TYPES 125
9
9
9
9
9
9
9
9
9
9
9
9
9
9
9
9
9
9
9
9
9
9
9
9
9
9
9
9
9
9
9
9
9
9
9
9
9
9
9
9
9
9
9
9
9
9
9
9
9
9
9
9
9
9
9
9
9
9
9
9
9
9
9
9
9
9
9
9
9
9
9
9
9
9
9
9
9
9
9
9
9
9
9
9
9
9
9
9
9
9
9
9
9
9
9
9
9
9
9
9
9
9
9
9
9
9
9
9
9
9
9
9
9
9
9
9
9
9
9
9
9
9
9
9
9

CELL_DATA 125
SCALARS i float 1
LOOKUP_TABLE default
0
1
2
3
4
5
6
7
8
9
10
11
12
13
14
15
16
17
18
19
20
21
22
23
24
25
26
27
28
29
30
31
32
33
34
35
36
37
38
39
40
41
42
43
44
45
46
47
48
49
50
51
52
53
54
55
56
57
58
59
60
61
62
63
64
65
66
67
68
69
70
71
72
73
74
75
76
77
78
79
80
81
82
83
84
85
86
87
88
89
90
91
92
93
94
95
96
97
98
99
100
101
102
103
104
105
106
107
108
109
110
111
112
113
114
115
116
117
118
119
120
121
122
123
124
SCALARS cl float 1
LOOKUP_TABLE default
1.6769563646659582
1.6769563646659582
1.6769563646659582
1.6769563646659582
1.6769563646659582
1.6876493173543408
1.6876493173543408
1.6876493173543408
1.6876493173543408
1.6876493173543408
1.6896142267655085
1.6896142267655085
1.6896142267655085
1.6896142267655085
1.6896142267655085
1.6859526174763901
1.6859526174763901
1.6859526174763901
1.6859526174763901
1.6859526174763901
1.6781632313575323
1.6781632313575323
1.6781632313575323
1.6781632313575323
1.6781632313575323
1.6670812442843514
1.6670812442843514
1.6670812442843514
1.6670812442843514
1.6670812442843514
1.653168393035919
1.653168393035919
1.653168393035919
1.653168393035919
1.653168393035919
1.6366342877202251
1.6366342877202251
1.6366342877202251
1.6366342877202251
1.6366342877202251
1.6174959474491342
1.6174959474491342
1.6174959474491342
1.6174959474491342
1.6174959474491342
1.5955885889929198
1.5955885889929198
1.5955885889929198
1.5955885889929198
1.5955885889929198
1.570560183815545
1.570560183815545
1.570560183815545
1.570560183815545
1.570560183815545
1.5418598017526675
1.5418598017526675
1.5418598017526675
1.5418598017526675
1.5418598017526675
1.508695504122346
1.508695504122346
1.508695504122346
1.508695504122346
1.508695504122346
1.4700023642741067
1.4700023642741067
1.4700023642741067
1.4700023642741067
1.4700023642741067
1.4244023242813644
1.4244023242813644
1.4244023242813644
1.4244023242813644
1.4244023242813644
1.3701751382232905
1.3701751382232905
1.3701751382232905
1.3701751382232905
1.3701751382232905
1.3052549087957885
1.3052549087957885
1.3052549087957885
1.3052549087957885
1.3052549087957885
1.227307386645568
1.227307386645568
1.227307386645568
1.227307386645568
1.227307386645568
1.133935234837937
1.133935234837937
1.133935234837937
1.133935234837937
1.133935234837937
1.023029956777912
1.023029956777912
1.023029956777912
1.023029956777912
1.023029956777912
0.8933326433624067
0.8933326433624067
0.8933326433624067
0.8933326433624067
0.8933326433624067
0.7450368907937303
0.7450368907937303
0.7450368907937303
0.7450368907937303
0.7450368907937303
0.5803486461454372
0.5803486461454372
0.5803486461454372
0.5803486461454372
0.5803486461454372
0.4045282336326329
0.4045282336326329
0.4045282336326329
0.4045282336326329
0.4045282336326329
0.2341169700945838
0.2341169700945838
0.2341169700945838
0.2341169700945838
0.2341169700945838
SCALARS Cl/CL float 1
LOOKUP_TABLE default
2.160090497128113
2.160090497128113
2.160090497128113
2.160090497128113
2.160090497128113
2.1738641086394757
2.1738641086394757
2.1738641086394757
2.1738641086394757
2.1738641086394757
2.1763951119715905
2.1763951119715905
2.1763951119715905
2.1763951119715905
2.1763951119715905
2.1716785864875203
2.1716785864875203
2.1716785864875203
2.1716785864875203
2.1716785864875203
2.1616450642752962
2.1616450642752962
2.1616450642752962
2.1616450642752962
2.1616450642752962
2.147370336876028
2.147370336876028
2.147370336876028
2.147370336876028
2.147370336876028
2.1294491682619103
2.1294491682619103
2.1294491682619103
2.1294491682619103
2.1294491682619103
2.1081515575885046
2.1081515575885046
2.1081515575885046
2.1081515575885046
2.1081515575885046
2.0834994272042877
2.0834994272042877
2.0834994272042877
2.0834994272042877
2.0834994272042877
2.0552805195358856
2.0552805195358856
2.0552805195358856
2.0552805195358856
2.0552805195358856
2.0230413859954677
2.0230413859954677
2.0230413859954677
2.0230413859954677
2.0230413859954677
1.9860723724515064
1.9860723724515064
1.9860723724515064
1.9860723724515064
1.9860723724515064
1.943353381269255
1.943353381269255
1.943353381269255
1.943353381269255
1.943353381269255
1.893512678522717
1.893512678522717
1.893512678522717
1.893512678522717
1.893512678522717
1.8347751853282501
1.8347751853282501
1.8347751853282501
1.8347751853282501
1.8347751853282501
1.764925049833892
1.764925049833892
1.764925049833892
1.764925049833892
1.764925049833892
1.6813011860217542
1.6813011860217542
1.6813011860217542
1.6813011860217542
1.6813011860217542
1.5808968431187032
1.5808968431187032
1.5808968431187032
1.5808968431187032
1.5808968431187032
1.460624007124999
1.460624007124999
1.460624007124999
1.460624007124999
1.460624007124999
1.3177667197998566
1.3177667197998566
1.3177667197998566
1.3177667197998566
1.3177667197998566
1.1507033780726044
1.1507033780726044
1.1507033780726044
1.1507033780726044
1.1507033780726044
0.9596833535582107
0.9596833535582107
0.9596833535582107
0.9596833535582107
0.9596833535582107
0.7475481306334629
0.7475481306334629
0.7475481306334629
0.7475481306334629
0.7475481306334629
0.5210735423422492
0.5210735423422492
0.5210735423422492
0.5210735423422492
0.5210735423422492
0.3015664885344067
0.3015664885344067
0.3015664885344067
0.3015664885344067
0.3015664885344067
SCALARS cd float 1
LOOKUP_TABLE default
0.20524680061949688
0.20524680061949688
0.20524680061949688
0.20524680061949688
0.20524680061949688
0.20057758538492734
0.20057758538492734
0.20057758538492734
0.20057758538492734
0.20057758538492734
0.19583595867518983
0.19583595867518983
0.19583595867518983
0.19583595867518983
0.19583595867518983
0.19118129624460975
0.19118129624460975
0.19118129624460975
0.19118129624460975
0.19118129624460975
0.1867058589478021
0.1867058589478021
0.1867058589478021
0.1867058589478021
0.1867058589478021
0.1824549739427476
0.1824549739427476
0.1824549739427476
0.1824549739427476
0.1824549739427476
0.1784582307172295
0.1784582307172295
0.1784582307172295
0.1784582307172295
0.1784582307172295
0.17473016208787753
0.17473016208787753
0.17473016208787753
0.17473016208787753
0.17473016208787753
0.17128127363444579
0.17128127363444579
0.17128127363444579
0.17128127363444579
0.17128127363444579
0.16812236690394833
0.16812236690394833
0.16812236690394833
0.16812236690394833
0.16812236690394833
0.16525315256402953
0.16525315256402953
0.16525315256402953
0.16525315256402953
0.16525315256402953
0.1626631191891395
0.1626631191891395
0.1626631191891395
0.1626631191891395
0.1626631191891395
0.16032215689186388
0.16032215689186388
0.16032215689186388
0.16032215689186388
0.16032215689186388
0.15817378823543496
0.15817378823543496
0.15817378823543496
0.15817378823543496
0.15817378823543496
0.1561111395814701
0.1561111395814701
0.1561111395814701
0.1561111395814701
0.1561111395814701
0.15395531462039128
0.15395531462039128
0.15395531462039128
0.15395531462039128
0.15395531462039128
0.15142945063297142
0.15142945063297142
0.15142945063297142
0.15142945063297142
0.15142945063297142
0.14813490743630245
0.14813490743630245
0.14813490743630245
0.14813490743630245
0.14813490743630245
0.1435558614559271
0.1435558614559271
0.1435558614559271
0.1435558614559271
0.1435558614559271
0.1370983790140725
0.1370983790140725
0.1370983790140725
0.1370983790140725
0.1370983790140725
0.12818094465643126
0.12818094465643126
0.12818094465643126
0.12818094465643126
0.12818094465643126
0.11630076049037573
0.11630076049037573
0.11630076049037573
0.11630076049037573
0.11630076049037573
0.1008388811249777
0.1008388811249777
0.1008388811249777
0.1008388811249777
0.1008388811249777
0.0803069024709754
0.0803069024709754
0.0803069024709754
0.0803069024709754
0.0803069024709754
0.05347793852073996
0.05347793852073996
0.05347793852073996
0.05347793852073996
0.05347793852073996
SCALARS cd_CD float 1
LOOKUP_TABLE default
1.784900140613368
1.784900140613368
1.784900140613368
1.784900140613368
1.784900140613368
1.744294962342221
1.744294962342221
1.744294962342221
1.744294962342221
1.744294962342221
1.7030600677889236
1.7030600677889236
1.7030600677889236
1.7030600677889236
1.7030600677889236
1.6625814459454955
1.6625814459454955
1.6625814459454955
1.6625814459454955
1.6625814459454955
1.6236614304506498
1.6236614304506498
1.6236614304506498
1.6236614304506498
1.6236614304506498
1.5866942026042135
1.5866942026042135
1.5866942026042135
1.5866942026042135
1.5866942026042135
1.5519370832547725
1.5519370832547725
1.5519370832547725
1.5519370832547725
1.5519370832547725
1.5195164550127627
1.5195164550127627
1.5195164550127627
1.5195164550127627
1.5195164550127627
1.4895236781855006
1.4895236781855006
1.4895236781855006
1.4895236781855006
1.4895236781855006
1.4620526869182495
1.4620526869182495
1.4620526869182495
1.4620526869182495
1.4620526869182495
1.4371009650725814
1.4371009650725814
1.4371009650725814
1.4371009650725814
1.4371009650725814
1.4145771015040334
1.4145771015040334
1.4145771015040334
1.4145771015040334
1.4145771015040334
1.3942192497812966
1.3942192497812966
1.3942192497812966
1.3942192497812966
1.3942192497812966
1.3755362617621154
1.3755362617621154
1.3755362617621154
1.3755362617621154
1.3755362617621154
1.3575987257742919
1.3575987257742919
1.3575987257742919
1.3575987257742919
1.3575987257742919
1.3388508950429325
1.3388508950429325
1.3388508950429325
1.3388508950429325
1.3388508950429325
1.3168850715918083
1.3168850715918083
1.3168850715918083
1.3168850715918083
1.3168850715918083
1.2882345367369783
1.2882345367369783
1.2882345367369783
1.2882345367369783
1.2882345367369783
1.24841350279356
1.24841350279356
1.24841350279356
1.24841350279356
1.24841350279356
1.1922569084705994
1.1922569084705994
1.1922569084705994
1.1922569084705994
1.1922569084705994
1.1147076858234115
1.1147076858234115
1.1147076858234115
1.1147076858234115
1.1147076858234115
1.0113933231902192
1.0113933231902192
1.0113933231902192
1.0113933231902192
1.0113933231902192
0.8769312484092869
0.8769312484092869
0.8769312484092869
0.8769312484092869
0.8769312484092869
0.698377763161351
0.698377763161351
0.698377763161351
0.698377763161351
0.698377763161351
0.46506342460528727
0.46506342460528727
0.46506342460528727
0.46506342460528727
0.46506342460528727