# vtk DataFile Version 4.0
SUAVE Model of PROWIM Propeller Wake 
ASCII
DATASET UNSTRUCTURED_GRID

POINTS 1800 float
2.6151 4.9447 1.1199
2.6219 4.9358 1.1512
2.6291 4.927 1.1826
2.6361 4.918 1.214
2.6426 4.9091 1.2456
2.6482 4.9001 1.2773
2.6527 4.8911 1.309
2.6562 4.8821 1.3409
2.6587 4.8731 1.3728
2.6601 4.864 1.4049
2.6606 4.8549 1.437
2.6602 4.8458 1.4692
2.659 4.8366 1.5015
2.657 4.8275 1.5338
2.6543 4.8183 1.5661
2.6508 4.8091 1.5985
2.6464 4.7999 1.631
2.641 4.7907 1.6634
2.6343 4.7815 1.6959
2.6251 4.7723 1.7285
2.5065 4.9758 1.1242
2.5134 4.9758 1.1567
2.5205 4.9758 1.1894
2.5276 4.9758 1.2221
2.534 4.9758 1.2549
2.5396 4.9758 1.2878
2.5442 4.9758 1.3208
2.5477 4.9758 1.3539
2.5501 4.9758 1.3871
2.5515 4.9758 1.4205
2.552 4.9758 1.4538
2.5516 4.9758 1.4873
2.5504 4.9758 1.5208
2.5484 4.9758 1.5544
2.5457 4.9758 1.5881
2.5422 4.9758 1.6217
2.5378 4.9758 1.6555
2.5325 4.9758 1.6892
2.5257 4.9758 1.723
2.5165 4.9758 1.7568
2.6151 4.9447 1.1199
2.6219 4.9358 1.1512
2.6291 4.927 1.1826
2.6361 4.918 1.214
2.6426 4.9091 1.2456
2.6482 4.9001 1.2773
2.6527 4.8911 1.309
2.6562 4.8821 1.3409
2.6587 4.8731 1.3728
2.6601 4.864 1.4049
2.6606 4.8549 1.437
2.6602 4.8458 1.4692
2.659 4.8366 1.5015
2.657 4.8275 1.5338
2.6543 4.8183 1.5661
2.6508 4.8091 1.5985
2.6464 4.7999 1.631
2.641 4.7907 1.6634
2.6343 4.7815 1.6959
2.6251 4.7723 1.7285
2.7237 4.9159 1.1073
2.7305 4.8989 1.1349
2.7377 4.8818 1.1627
2.7447 4.8646 1.1905
2.7512 4.8474 1.2185
2.7567 4.8302 1.2465
2.7613 4.8128 1.2746
2.7648 4.7955 1.3028
2.7673 4.7781 1.3311
2.7687 4.7606 1.3594
2.7692 4.7431 1.3879
2.7688 4.7255 1.4163
2.7676 4.708 1.4449
2.7656 4.6903 1.4735
2.7629 4.6727 1.5021
2.7593 4.6551 1.5308
2.755 4.6374 1.5595
2.7496 4.6197 1.5882
2.7429 4.602 1.6169
2.7337 4.5842 1.6457
2.8323 4.8917 1.0872
2.8391 4.8677 1.1092
2.8463 4.8437 1.1313
2.8533 4.8196 1.1534
2.8598 4.7955 1.1756
2.8653 4.7712 1.1978
2.8699 4.7469 1.2202
2.8734 4.7225 1.2425
2.8759 4.6981 1.265
2.8773 4.6735 1.2875
2.8778 4.6489 1.3101
2.8774 4.6243 1.3327
2.8762 4.5996 1.3554
2.8742 4.5749 1.3781
2.8714 4.5501 1.4008
2.8679 4.5253 1.4236
2.8636 4.5005 1.4464
2.8582 4.4756 1.4692
2.8515 4.4508 1.492
2.8423 4.4259 1.5149
2.9408 4.8738 1.0614
2.9477 4.8448 1.076
2.9549 4.8157 1.0907
2.9619 4.7865 1.1054
2.9683 4.7572 1.1201
2.9739 4.7278 1.1349
2.9785 4.6983 1.1498
2.982 4.6687 1.1647
2.9844 4.6391 1.1796
2.9859 4.6094 1.1946
2.9864 4.5795 1.2096
2.986 4.5497 1.2247
2.9848 4.5198 1.2397
2.9828 4.4898 1.2548
2.98 4.4598 1.2699
2.9765 4.4297 1.2851
2.9722 4.3996 1.3002
2.9668 4.3695 1.3154
2.96 4.3394 1.3306
2.9508 4.3092 1.3458
3.0494 4.8637 1.0316
3.0563 4.8318 1.0378
3.0635 4.7997 1.044
3.0705 4.7676 1.0502
3.0769 4.7354 1.0564
3.0825 4.7031 1.0626
3.0871 4.6707 1.0689
3.0906 4.6382 1.0751
3.093 4.6056 1.0814
3.0945 4.5729 1.0877
3.095 4.5402 1.094
3.0946 4.5074 1.1004
3.0933 4.4745 1.1067
3.0914 4.4415 1.1131
3.0886 4.4085 1.1194
3.0851 4.3755 1.1258
3.0807 4.3424 1.1322
3.0754 4.3093 1.1386
3.0686 4.2762 1.145
3.0594 4.243 1.1514
3.158 4.862 1.0002
3.1649 4.8296 0.9975
3.1721 4.7972 0.9947
3.1791 4.7646 0.9919
3.1855 4.7319 0.9891
3.1911 4.6991 0.9863
3.1957 4.6663 0.9835
3.1992 4.6333 0.9806
3.2016 4.6002 0.9778
3.2031 4.5671 0.975
3.2035 4.5338 0.9721
3.2031 4.5005 0.9693
3.2019 4.4672 0.9664
3.1999 4.4337 0.9635
3.1972 4.4003 0.9607
3.1937 4.3668 0.9578
3.1893 4.3332 0.9549
3.184 4.2996 0.952
3.1772 4.266 0.9492
3.168 4.2324 0.9463
3.2666 4.869 0.9696
3.2734 4.8386 0.9581
3.2806 4.8081 0.9466
3.2877 4.7775 0.935
3.2941 4.7469 0.9234
3.2997 4.7161 0.9118
3.3042 4.6852 0.9001
3.3078 4.6543 0.8884
3.3102 4.6232 0.8767
3.3116 4.5921 0.8649
3.3121 4.5609 0.8531
3.3117 4.5297 0.8413
3.3105 4.4984 0.8294
3.3085 4.467 0.8176
3.3058 4.4356 0.8057
3.3023 4.4042 0.7938
3.2979 4.3727 0.7819
3.2925 4.3412 0.77
3.2858 4.3096 0.7581
3.2766 4.2781 0.7461
3.3752 4.8841 0.942
3.382 4.8579 0.9227
3.3892 4.8317 0.9033
3.3962 4.8055 0.8838
3.4027 4.7791 0.8643
3.4083 4.7527 0.8447
3.4128 4.7262 0.8251
3.4163 4.6996 0.8054
3.4188 4.673 0.7856
3.4202 4.6462 0.7658
3.4207 4.6195 0.746
3.4203 4.5926 0.7261
3.4191 4.5657 0.7062
3.4171 4.5388 0.6862
3.4144 4.5118 0.6663
3.4108 4.4848 0.6463
3.4065 4.4578 0.6262
3.4011 4.4307 0.6062
3.3944 4.4037 0.5861
3.3852 4.3766 0.566
3.4838 4.9061 0.9196
3.4906 4.8862 0.8938
3.4978 4.8663 0.868
3.5048 4.8463 0.8422
3.5113 4.8263 0.8162
3.5168 4.8062 0.7902
3.5214 4.7861 0.7641
3.5249 4.7659 0.7379
3.5274 4.7456 0.7116
3.5288 4.7253 0.6853
3.5293 4.705 0.6589
3.5289 4.6846 0.6325
3.5277 4.6641 0.606
3.5257 4.6437 0.5795
3.5229 4.6232 0.5529
3.5194 4.6027 0.5263
3.5151 4.5821 0.4997
3.5097 4.5616 0.4731
3.503 4.541 0.4464
3.4938 4.5204 0.4197
3.5924 4.9334 0.904
3.5992 4.9213 0.8738
3.6064 4.9091 0.8435
3.6134 4.897 0.8132
3.6198 4.8848 0.7828
3.6254 4.8726 0.7523
3.63 4.8603 0.7217
3.6335 4.848 0.691
3.636 4.8357 0.6602
3.6374 4.8233 0.6294
3.6379 4.8109 0.5985
3.6375 4.7985 0.5675
3.6363 4.7861 0.5365
3.6343 4.7736 0.5054
3.6315 4.7612 0.4743
3.628 4.7487 0.4431
3.6237 4.7362 0.4119
3.6183 4.7237 0.3807
3.6116 4.7112 0.3494
3.6024 4.6986 0.3182
3.7009 4.9639 0.8964
3.7078 4.9605 0.8641
3.715 4.957 0.8317
3.722 4.9536 0.7992
3.7284 4.9502 0.7666
3.734 4.9467 0.7339
3.7386 4.9433 0.7012
3.7421 4.9398 0.6683
3.7445 4.9363 0.6353
3.746 4.9328 0.6023
3.7465 4.9294 0.5692
3.7461 4.9259 0.536
3.7448 4.9224 0.5028
3.7429 4.9188 0.4695
3.7401 4.9153 0.4362
3.7366 4.9118 0.4029
3.7322 4.9083 0.3695
3.7269 4.9048 0.336
3.7201 4.9012 0.3026
3.7109 4.8977 0.2691
3.8095 4.9953 0.8974
3.8164 5.0008 0.8654
3.8236 5.0063 0.8333
3.8306 5.0119 0.8011
3.837 5.0175 0.7689
3.8426 5.0231 0.7365
3.8472 5.0287 0.704
3.8507 5.0343 0.6715
3.8531 5.0399 0.6388
3.8546 5.0456 0.6061
3.855 5.0512 0.5734
3.8546 5.0569 0.5405
3.8534 5.0626 0.5076
3.8514 5.0683 0.4747
3.8487 5.074 0.4417
3.8452 5.0797 0.4087
3.8408 5.0854 0.3756
3.8355 5.0911 0.3425
3.8287 5.0968 0.3094
3.8195 5.1025 0.2763
3.9181 5.0252 0.907
3.925 5.0393 0.8777
3.9321 5.0533 0.8483
3.9392 5.0675 0.8189
3.9456 5.0816 0.7894
3.9512 5.0958 0.7598
3.9557 5.11 0.7301
3.9593 5.1243 0.7003
3.9617 5.1386 0.6705
3.9631 5.153 0.6406
3.9636 5.1673 0.6106
3.9632 5.1817 0.5806
3.962 5.1961 0.5505
3.96 5.2106 0.5204
3.9573 5.225 0.4902
3.9538 5.2395 0.46
3.9494 5.254 0.4298
3.9441 5.2685 0.3996
3.9373 5.283 0.3693
3.9281 5.2975 0.339
4.0267 5.0514 0.9244
4.0335 5.0729 0.9
4.0407 5.0945 0.8756
4.0477 5.1161 0.8511
4.0542 5.1377 0.8266
4.0598 5.1594 0.802
4.0643 5.1812 0.7773
4.0678 5.203 0.7526
4.0703 5.2249 0.7278
4.0717 5.2468 0.7029
4.0722 5.2688 0.678
4.0718 5.2908 0.6531
4.0706 5.3129 0.6281
4.0686 5.3349 0.6031
4.0659 5.357 0.5781
4.0624 5.3792 0.553
4.058 5.4013 0.5279
4.0526 5.4235 0.5028
4.0459 5.4456 0.4777
4.0367 5.4678 0.4525
4.1353 5.0719 0.9482
4.1421 5.0992 0.9306
4.1493 5.1266 0.913
4.1563 5.154 0.8954
4.1628 5.1815 0.8777
4.1683 5.2091 0.8599
4.1729 5.2368 0.8421
4.1764 5.2645 0.8243
4.1789 5.2923 0.8064
4.1803 5.3201 0.7885
4.1808 5.348 0.7706
4.1804 5.3759 0.7526
4.1792 5.4039 0.7346
4.1772 5.4319 0.7166
4.1745 5.46 0.6986
4.1709 5.488 0.6805
4.1666 5.5161 0.6624
4.1612 5.5442 0.6443
4.1545 5.5724 0.6262
4.1453 5.6005 0.6081
4.2439 5.0851 0.9767
4.2507 5.1162 0.9673
4.2579 5.1473 0.9578
4.2649 5.1785 0.9483
4.2713 5.2098 0.9388
4.2769 5.2411 0.9292
4.2815 5.2725 0.9196
4.285 5.304 0.9101
4.2875 5.3356 0.9004
4.2889 5.3672 0.8908
4.2894 5.3989 0.8812
4.289 5.4306 0.8715
4.2878 5.4624 0.8618
4.2858 5.4942 0.8522
4.283 5.526 0.8425
4.2795 5.5579 0.8327
4.2752 5.5898 0.823
4.2698 5.6217 0.8133
4.2631 5.6536 0.8036
4.2539 5.6856 0.7939
4.3524 5.09 1.0078
4.3593 5.1225 1.0071
4.3665 5.155 1.0065
4.3735 5.1876 1.0059
4.3799 5.2203 1.0052
4.3855 5.253 1.0046
4.3901 5.2858 1.0039
4.3936 5.3186 1.0033
4.396 5.3516 1.0026
4.3975 5.3846 1.002
4.398 5.4176 1.0014
4.3976 5.4507 1.0007
4.3964 5.4838 1.0001
4.3944 5.517 0.9994
4.3916 5.5502 0.9988
4.3881 5.5834 0.9981
4.3838 5.6167 0.9975
4.3784 5.6499 0.9968
4.3716 5.6832 0.9962
4.3624 5.7165 0.9955
4.461 5.0863 1.039
4.4679 5.1177 1.0472
4.4751 5.1492 1.0555
4.4821 5.1807 1.0637
4.4885 5.2122 1.072
4.4941 5.2438 1.0803
4.4987 5.2755 1.0886
4.5022 5.3073 1.0969
4.5046 5.3391 1.1053
4.5061 5.3709 1.1136
4.5065 5.4028 1.122
4.5062 5.4347 1.1303
4.5049 5.4667 1.1387
4.5029 5.4987 1.1471
4.5002 5.5307 1.1555
4.4967 5.5628 1.1639
4.4923 5.5948 1.1723
4.487 5.6269 1.1808
4.4802 5.659 1.1892
4.471 5.6911 1.1976
4.5696 5.0742 1.068
4.5765 5.1022 1.0845
4.5836 5.1302 1.101
4.5907 5.1582 1.1175
4.5971 5.1863 1.134
4.6027 5.2144 1.1506
4.6073 5.2426 1.1672
4.6108 5.2708 1.1838
4.6132 5.299 1.2005
4.6146 5.3273 1.2171
4.6151 5.3556 1.2338
4.6147 5.384 1.2505
4.6135 5.4124 1.2673
4.6115 5.4408 1.284
4.6088 5.4692 1.3007
4.6053 5.4976 1.3175
4.6009 5.5261 1.3343
4.5956 5.5546 1.3511
4.5888 5.583 1.3678
4.5796 5.6115 1.3846
4.6782 5.0547 1.0926
4.685 5.0771 1.1161
4.6922 5.0995 1.1396
4.6992 5.122 1.1631
4.7057 5.1444 1.1866
4.7113 5.1669 1.2102
4.7158 5.1895 1.2338
4.7193 5.212 1.2574
4.7218 5.2346 1.281
4.7232 5.2572 1.3047
4.7237 5.2798 1.3284
4.7233 5.3024 1.3521
4.7221 5.3251 1.3758
4.7201 5.3478 1.3996
4.7174 5.3705 1.4234
4.7139 5.3932 1.4471
4.7095 5.4159 1.4709
4.7041 5.4386 1.4947
4.6974 5.4613 1.5185
4.6882 5.484 1.5423
4.7868 5.0292 1.111
4.7936 5.0444 1.1396
4.8008 5.0595 1.1683
4.8078 5.0747 1.197
4.8143 5.0898 1.2257
4.8198 5.105 1.2545
4.8244 5.1202 1.2832
4.8279 5.1355 1.312
4.8304 5.1507 1.3408
4.8318 5.1659 1.3697
4.8323 5.1812 1.3985
4.8319 5.1964 1.4274
4.8307 5.2117 1.4563
4.8287 5.227 1.4852
4.826 5.2422 1.5141
4.8224 5.2575 1.543
4.8181 5.2728 1.5719
4.8127 5.2881 1.6009
4.806 5.3034 1.6298
4.7968 5.3187 1.6587
4.8954 4.9997 1.1217
4.9022 5.0064 1.1534
4.9094 5.0132 1.1851
4.9164 5.0199 1.2168
4.9229 5.0267 1.2485
4.9284 5.0335 1.2802
4.933 5.0402 1.3119
4.9365 5.047 1.3437
4.939 5.0538 1.3754
4.9404 5.0605 1.4072
4.9409 5.0673 1.439
4.9405 5.0741 1.4708
4.9393 5.0809 1.5025
4.9373 5.0877 1.5343
4.9345 5.0945 1.5662
4.931 5.1012 1.598
4.9267 5.108 1.6298
4.9213 5.1148 1.6616
[...]
CELL_DATA 1653
SCALARS circulation float 1
LOOKUP_TABLE default
0.8854817920553129
1.2974731097506038
1.7355682108932204
2.1892283005465076
2.632344609289019
3.047611162002527
3.4294658250895793
3.7750337272743746
4.073718813794423
4.312895564472016
4.487116757987435
4.595922527815144
4.638455172833432
4.61073753109074
4.5048759469579185
4.306438539288646
3.990344995172057
3.518416740736594
2.8125156511943925
0.8854817920553129
1.2974731097506038
1.7355682108932204
2.1892283005465076
2.632344609289019
3.047611162002527
3.4294658250895793
3.7750337272743746
4.073718813794423
4.312895564472016
4.487116757987435
4.595922527815144
4.638455172833432
4.61073753109074
4.5048759469579185
4.306438539288646
3.990344995172057
3.518416740736594
2.8125156511943925
0.8854817920553129
1.2974731097506038
1.7355682108932204
2.1892283005465076
2.632344609289019
3.047611162002527
3.4294658250895793
3.7750337272743746
4.073718813794423
4.312895564472016
4.487116757987435
4.595922527815144
4.638455172833432
4.61073753109074
4.5048759469579185
4.306438539288646
3.990344995172057
3.518416740736594
2.8125156511943925
0.8854817920553129
1.2974731097506038
1.7355682108932204
2.1892283005465076
2.632344609289019
3.047611162002527
3.4294658250895793
3.7750337272743746
4.073718813794423
4.312895564472016
4.487116757987435
4.595922527815144
4.638455172833432
4.61073753109074
4.5048759469579185
4.306438539288646
3.990344995172057
3.518416740736594
2.8125156511943925
0.8854817920553129
1.2974731097506038
1.7355682108932204
2.1892283005465076
2.632344609289019
3.047611162002527
3.4294658250895793
3.7750337272743746
4.073718813794423
4.312895564472016
4.487116757987435
4.595922527815144
4.638455172833432
4.61073753109074
4.5048759469579185
4.306438539288646
3.990344995172057
3.518416740736594
2.8125156511943925
0.8854817920553129
1.2974731097506038
1.7355682108932204
2.1892283005465076
2.632344609289019
3.047611162002527
3.4294658250895793
3.7750337272743746
4.073718813794423
4.312895564472016
4.487116757987435
4.595922527815144
4.638455172833432
4.61073753109074
4.5048759469579185
4.306438539288646
3.990344995172057
3.518416740736594
2.8125156511943925
0.8854817920553129
1.2974731097506038
1.7355682108932204
2.1892283005465076
2.632344609289019
3.047611162002527
3.4294658250895793
3.7750337272743746
4.073718813794423
4.312895564472016
4.487116757987435
4.595922527815144
4.638455172833432
4.61073753109074
4.5048759469579185
4.306438539288646
3.990344995172057
3.518416740736594
2.8125156511943925
0.8854817920553129
1.2974731097506038
1.7355682108932204
2.1892283005465076
2.632344609289019
3.047611162002527
3.4294658250895793
3.7750337272743746
4.073718813794423
4.312895564472016
4.487116757987435
4.595922527815144
4.638455172833432
4.61073753109074
4.5048759469579185
4.306438539288646
3.990344995172057
3.518416740736594
2.8125156511943925
0.8854817920553129
1.2974731097506038
1.7355682108932204
2.1892283005465076
2.632344609289019
3.047611162002527
3.4294658250895793
3.7750337272743746
4.073718813794423
4.312895564472016
4.487116757987435
4.595922527815144
4.638455172833432
4.61073753109074
4.5048759469579185
4.306438539288646
3.990344995172057
3.518416740736594
2.8125156511943925
0.8854817920553129
1.2974731097506038
1.7355682108932204
2.1892283005465076
2.632344609289019
3.047611162002527
3.4294658250895793
3.7750337272743746
4.073718813794423
4.312895564472016
4.487116757987435
4.595922527815144
4.638455172833432
4.61073753109074
4.5048759469579185
4.306438539288646
3.990344995172057
3.518416740736594
2.8125156511943925
0.8854817920553129
1.2974731097506038
1.7355682108932204
2.1892283005465076
2.632344609289019
3.047611162002527
3.4294658250895793
3.7750337272743746
4.073718813794423
4.312895564472016
4.487116757987435
4.595922527815144
4.638455172833432
4.61073753109074
4.5048759469579185
4.306438539288646
3.990344995172057
3.518416740736594
2.8125156511943925
0.8854817920553129
1.2974731097506038
1.7355682108932204
2.1892283005465076
2.632344609289019
3.047611162002527
3.4294658250895793
3.7750337272743746
4.073718813794423
4.312895564472016
4.487116757987435
4.595922527815144
4.638455172833432
4.61073753109074
4.5048759469579185
4.306438539288646
3.990344995172057
3.518416740736594
2.8125156511943925
0.8854817920553129
1.2974731097506038
1.7355682108932204
2.1892283005465076
2.632344609289019
3.047611162002527
3.4294658250895793
3.7750337272743746
4.073718813794423
4.312895564472016
4.487116757987435
4.595922527815144
4.638455172833432
4.61073753109074
4.5048759469579185
4.306438539288646
3.990344995172057
3.518416740736594
2.8125156511943925
0.8854817920553129
1.2974731097506038
1.7355682108932204
2.1892283005465076
2.632344609289019
3.047611162002527
3.4294658250895793
3.7750337272743746
4.073718813794423
4.312895564472016
4.487116757987435
4.595922527815144
4.638455172833432
4.61073753109074
4.5048759469579185
4.306438539288646
3.990344995172057
3.518416740736594
2.8125156511943925
0.8854817920553129
1.2974731097506038
1.7355682108932204
2.1892283005465076
2.632344609289019
3.047611162002527
3.4294658250895793
3.7750337272743746
4.073718813794423
4.312895564472016
4.487116757987435
4.595922527815144
4.638455172833432
4.61073753109074
4.5048759469579185
4.306438539288646
3.990344995172057
3.518416740736594
2.8125156511943925
0.8854817920553129
1.2974731097506038
1.7355682108932204
2.1892283005465076
2.632344609289019
3.047611162002527
3.4294658250895793
3.7750337272743746
4.073718813794423
4.312895564472016
4.487116757987435
4.595922527815144
4.638455172833432
4.61073753109074
4.5048759469579185
4.306438539288646
3.990344995172057
3.518416740736594
2.8125156511943925
0.8854817920553129
1.2974731097506038
1.7355682108932204
2.1892283005465076
2.632344609289019
3.047611162002527
3.4294658250895793
3.7750337272743746
4.073718813794423
4.312895564472016
4.487116757987435
4.595922527815144
4.638455172833432
4.61073753109074
4.5048759469579185
4.306438539288646
3.990344995172057
3.518416740736594
2.8125156511943925
0.8854817920553129
1.2974731097506038
1.7355682108932204
2.1892283005465076
2.632344609289019
3.047611162002527
3.4294658250895793
3.7750337272743746
4.073718813794423
4.312895564472016
4.487116757987435
4.595922527815144
4.638455172833432
4.61073753109074
4.5048759469579185
4.306438539288646
3.990344995172057
3.518416740736594
2.8125156511943925
0.8854817920553129
1.2974731097506038
1.7355682108932204
2.1892283005465076
2.632344609289019
3.047611162002527
3.4294658250895793
3.7750337272743746
4.073718813794423
4.312895564472016
4.487116757987435
4.595922527815144
4.638455172833432
4.61073753109074
4.5048759469579185
4.306438539288646
3.990344995172057
3.518416740736594
2.8125156511943925
0.8854817920553129
1.2974731097506038
1.7355682108932204
2.1892283005465076
2.632344609289019
3.047611162002527
3.4294658250895793
3.7750337272743746
4.073718813794423
4.312895564472016
4.487116757987435
4.595922527815144
4.638455172833432
4.61073753109074
4.5048759469579185
4.306438539288646
3.990344995172057
3.518416740736594
2.8125156511943925
0.8854817920553129
1.2974731097506038
1.7355682108932204
2.1892283005465076
2.632344609289019
3.047611162002527
3.4294658250895793
3.7750337272743746
4.073718813794423
4.312895564472016
4.487116757987435
4.595922527815144
4.638455172833432
4.61073753109074
4.5048759469579185
4.306438539288646
3.990344995172057
3.518416740736594
2.8125156511943925
0.8854817920553129
1.2974731097506038
1.7355682108932204
2.1892283005465076
2.632344609289019
3.047611162002527
3.4294658250895793
3.7750337272743746
4.073718813794423
4.312895564472016
4.487116757987435
4.595922527815144
4.638455172833432
4.61073753109074
4.5048759469579185
4.306438539288646
3.990344995172057
3.518416740736594
2.8125156511943925
0.8854817920553129
1.2974731097506038
1.7355682108932204
2.1892283005465076
2.632344609289019
3.047611162002527
3.4294658250895793
3.7750337272743746
4.073718813794423
4.312895564472016
4.487116757987435
4.595922527815144
4.638455172833432
4.61073753109074
4.5048759469579185
4.306438539288646
3.990344995172057
3.518416740736594
2.8125156511943925
0.8854817920553129
1.2974731097506038
1.7355682108932204
2.1892283005465076
2.632344609289019
3.047611162002527
3.4294658250895793
3.7750337272743746
4.073718813794423
4.312895564472016
4.487116757987435
4.595922527815144
4.638455172833432
4.61073753109074
4.5048759469579185
4.306438539288646
3.990344995172057
3.518416740736594
2.8125156511943925
0.8854817920553129
1.2974731097506038
1.7355682108932204
2.1892283005465076
2.632344609289019
3.047611162002527
3.4294658250895793
3.7750337272743746
4.073718813794423
4.312895564472016
4.487116757987435
4.595922527815144
4.638455172833432
4.61073753109074
4.5048759469579185
4.306438539288646
3.990344995172057
3.518416740736594
2.8125156511943925
0.8854817920553129
1.2974731097506038
1.7355682108932204
2.1892283005465076
2.632344609289019
3.047611162002527
3.4294658250895793
3.7750337272743746
4.073718813794423
4.312895564472016
4.487116757987435
4.595922527815144
4.638455172833432
4.61073753109074
4.5048759469579185
4.306438539288646
3.990344995172057
3.518416740736594
2.8125156511943925
0.8854817920553129
1.2974731097506038
1.7355682108932204
2.1892283005465076
2.632344609289019
3.047611162002527
3.4294658250895793
3.7750337272743746
4.073718813794423
4.312895564472016
4.487116757987435
4.595922527815144
4.638455172833432
4.61073753109074
4.5048759469579185
4.306438539288646
3.990344995172057
3.518416740736594
2.8125156511943925
0.8854817920553129
1.2974731097506038
1.7355682108932204
2.1892283005465076
2.632344609289019
3.047611162002527
3.4294658250895793
3.7750337272743746
4.073718813794423
4.312895564472016
4.487116757987435
4.595922527815144
4.638455172833432
4.61073753109074
4.5048759469579185
4.306438539288646
3.990344995172057
3.518416740736594
2.8125156511943925
0.8854817920553129
1.2974731097506038
1.7355682108932204
2.1892283005465076
2.632344609289019
3.047611162002527
3.4294658250895793
3.7750337272743746
4.073718813794423
4.312895564472016
4.487116757987435
4.595922527815144
4.638455172833432
4.61073753109074
4.5048759469579185
4.306438539288646
3.990344995172057
3.518416740736594
2.8125156511943925
0.8854817920553129
1.2974731097506038
1.7355682108932204
2.1892283005465076
2.632344609289019
3.047611162002527
3.4294658250895793
3.7750337272743746
4.073718813794423
4.312895564472016
4.487116757987435
4.595922527815144
4.638455172833432
4.61073753109074
4.5048759469579185
4.306438539288646
3.990344995172057
3.518416740736594
2.8125156511943925
0.8854817920553129
1.2974731097506038
1.7355682108932204
2.1892283005465076
2.632344609289019
3.047611162002527
3.4294658250895793
3.7750337272743746
4.073718813794423
4.312895564472016
4.487116757987435
4.595922527815144
4.638455172833432
4.61073753109074
4.5048759469579185
4.306438539288646
3.990344995172057
3.518416740736594
2.8125156511943925
0.8854817920553129
1.2974731097506038
1.7355682108932204
2.1892283005465076
2.632344609289019
3.047611162002527
3.4294658250895793
3.7750337272743746
4.073718813794423
4.312895564472016
4.487116757987435
4.595922527815144
4.638455172833432
4.61073753109074
4.5048759469579185
4.306438539288646
3.990344995172057
3.518416740736594
2.8125156511943925
0.8854817920553129
1.2974731097506038
1.7355682108932204
2.1892283005465076
2.632344609289019
3.047611162002527
3.4294658250895793
3.7750337272743746
4.073718813794423
4.312895564472016
4.487116757987435
4.595922527815144
4.638455172833432
4.61073753109074
4.5048759469579185
4.306438539288646
3.990344995172057
3.518416740736594
2.8125156511943925
0.8854817920553129
1.2974731097506038
1.7355682108932204
2.1892283005465076
2.632344609289019
3.047611162002527
3.4294658250895793
3.7750337272743746
4.073718813794423
4.312895564472016
4.487116757987435
4.595922527815144
4.638455172833432
4.61073753109074
4.5048759469579185
4.306438539288646
3.990344995172057
3.518416740736594
2.8125156511943925
0.8854817920553129
1.2974731097506038
1.7355682108932204
2.1892283005465076
2.632344609289019
3.047611162002527
3.4294658250895793
3.7750337272743746
4.073718813794423
4.312895564472016
4.487116757987435
4.595922527815144
4.638455172833432
4.61073753109074
4.5048759469579185
4.306438539288646
3.990344995172057
3.518416740736594
2.8125156511943925
0.8854817920553129
1.2974731097506038
1.7355682108932204
2.1892283005465076
2.632344609289019
3.047611162002527
3.4294658250895793
3.7750337272743746
4.073718813794423
4.312895564472016
4.487116757987435
4.595922527815144
4.638455172833432
4.61073753109074
4.5048759469579185
4.306438539288646
3.990344995172057
3.518416740736594
2.8125156511943925
0.8854817920553129
1.2974731097506038
1.7355682108932204
2.1892283005465076
2.632344609289019
3.047611162002527
3.4294658250895793
3.7750337272743746
4.073718813794423
4.312895564472016
4.487116757987435
4.595922527815144
4.638455172833432
4.61073753109074
4.5048759469579185
4.306438539288646
3.990344995172057
3.518416740736594
2.8125156511943925
0.8854817920553129
1.2974731097506038
1.7355682108932204
2.1892283005465076
2.632344609289019
3.047611162002527
3.4294658250895793
3.7750337272743746
4.073718813794423
4.312895564472016
4.487116757987435
4.595922527815144
4.638455172833432
4.61073753109074
4.5048759469579185
4.306438539288646
3.990344995172057
3.518416740736594
2.8125156511943925
0.8854817920553129
1.2974731097506038
1.7355682108932204
2.1892283005465076
2.632344609289019
3.047611162002527
3.4294658250895793
3.7750337272743746
4.073718813794423
4.312895564472016
4.487116757987435
4.595922527815144
4.638455172833432
4.61073753109074
4.5048759469579185
4.306438539288646
3.990344995172057
3.518416740736594
2.8125156511943925
0.8854817920553129
1.2974731097506038
1.7355682108932204
2.1892283005465076
2.632344609289019
3.047611162002527
3.4294658250895793
3.7750337272743746
4.073718813794423
4.312895564472016
4.487116757987435
4.595922527815144
4.638455172833432
4.61073753109074
4.5048759469579185
4.306438539288646
3.990344995172057
3.518416740736594
2.8125156511943925
0.8854817920553129
1.2974731097506038
1.7355682108932204
2.1892283005465076
2.632344609289019
3.047611162002527
3.4294658250895793
3.7750337272743746
4.073718813794423
4.312895564472016
4.487116757987435
4.595922527815144
4.638455172833432
4.61073753109074
4.5048759469579185
4.306438539288646
3.990344995172057
3.518416740736594
2.8125156511943925
0.8854817920553129
1.2974731097506038
1.7355682108932204
2.1892283005465076
2.632344609289019
3.047611162002527
3.4294658250895793
3.7750337272743746
4.073718813794423
4.312895564472016
4.487116757987435
4.595922527815144
4.638455172833432
4.61073753109074
4.5048759469579185
4.306438539288646
3.990344995172057
3.518416740736594
2.8125156511943925
0.8854817920553129
1.2974731097506038
1.7355682108932204
2.1892283005465076
2.632344609289019
3.047611162002527
3.4294658250895793
3.7750337272743746
4.073718813794423
4.312895564472016
4.487116757987435
4.595922527815144
4.638455172833432
4.61073753109074
4.5048759469579185
4.306438539288646
3.990344995172057
3.518416740736594
2.8125156511943925
0.8854817920553129
1.2974731097506038
1.7355682108932204
2.1892283005465076
2.632344609289019
3.047611162002527
3.4294658250895793
3.7750337272743746
4.073718813794423
4.312895564472016
4.487116757987435
4.595922527815144
4.638455172833432
4.61073753109074
4.5048759469579185
4.306438539288646
3.990344995172057
3.518416740736594
2.8125156511943925
0.8854817920553129
1.2974731097506038
1.7355682108932204
2.1892283005465076
2.632344609289019
3.047611162002527
3.4294658250895793
3.7750337272743746
4.073718813794423
4.312895564472016
4.487116757987435
4.595922527815144
4.638455172833432
4.61073753109074
4.5048759469579185
4.306438539288646
3.990344995172057
3.518416740736594
2.8125156511943925
0.8854817920553129
1.2974731097506038
1.7355682108932204
2.1892283005465076
2.632344609289019
3.047611162002527
3.4294658250895793
3.7750337272743746
4.073718813794423
4.312895564472016
4.487116757987435
4.595922527815144
4.638455172833432
4.61073753109074
4.5048759469579185
4.306438539288646
3.990344995172057
3.518416740736594
2.8125156511943925
0.8854817920553129
1.2974731097506038
1.7355682108932204
2.1892283005465076
2.632344609289019
3.047611162002527
3.4294658250895793
3.7750337272743746
4.073718813794423
4.312895564472016
4.487116757987435
4.595922527815144
4.638455172833432
4.61073753109074
4.5048759469579185
4.306438539288646
3.990344995172057
3.518416740736594
2.8125156511943925
0.8854817920553129
1.2974731097506038
1.7355682108932204
2.1892283005465076
2.632344609289019
3.047611162002527
3.4294658250895793
3.7750337272743746
4.073718813794423
4.312895564472016
4.487116757987435
4.595922527815144
4.638455172833432
4.61073753109074
4.5048759469579185
4.306438539288646
3.990344995172057
3.518416740736594
2.8125156511943925
0.8854817920553129
1.2974731097506038
1.7355682108932204
2.1892283005465076
2.632344609289019
3.047611162002527
3.4294658250895793
3.7750337272743746
4.073718813794423
4.312895564472016
4.487116757987435
4.595922527815144
4.638455172833432
4.61073753109074
4.5048759469579185
4.306438539288646
3.990344995172057
3.518416740736594
2.8125156511943925
0.8854817920553129
1.2974731097506038
1.7355682108932204
2.1892283005465076
2.632344609289019
3.047611162002527
3.4294658250895793
3.7750337272743746
4.073718813794423
4.312895564472016
4.487116757987435
4.595922527815144
4.638455172833432
4.61073753109074
4.5048759469579185
4.306438539288646
3.990344995172057
3.518416740736594
2.8125156511943925
0.8854817920553129
1.2974731097506038
1.7355682108932204
2.1892283005465076
2.632344609289019
3.047611162002527
3.4294658250895793
3.7750337272743746
4.073718813794423
4.312895564472016
4.487116757987435
4.595922527815144
4.638455172833432
4.61073753109074
4.5048759469579185
4.306438539288646
3.990344995172057
3.518416740736594
2.8125156511943925
0.8854817920553129
1.2974731097506038
1.7355682108932204
2.1892283005465076
2.632344609289019
3.047611162002527
3.4294658250895793
3.7750337272743746
4.073718813794423
4.312895564472016
4.487116757987435
4.595922527815144
4.638455172833432
4.61073753109074
4.5048759469579185
4.306438539288646
3.990344995172057
3.518416740736594
2.8125156511943925
0.8854817920553129
1.2974731097506038
1.7355682108932204
2.1892283005465076
2.632344609289019
3.047611162002527
3.4294658250895793
3.7750337272743746
4.073718813794423
4.312895564472016
4.487116757987435
4.595922527815144
4.638455172833432
4.61073753109074
4.5048759469579185
4.306438539288646
3.990344995172057
3.518416740736594
2.8125156511943925
0.8854817920553129
1.2974731097506038
1.7355682108932204
2.1892283005465076
2.632344609289019
3.047611162002527
3.4294658250895793
3.7750337272743746
4.073718813794423
4.312895564472016
4.487116757987435
4.595922527815144
4.638455172833432
4.61073753109074
4.5048759469579185
4.306438539288646
3.990344995172057
3.518416740736594
2.8125156511943925
0.8854817920553129
1.2974731097506038
1.7355682108932204
2.1892283005465076
2.632344609289019
3.047611162002527
3.4294658250895793
3.7750337272743746
4.073718813794423
4.312895564472016
4.487116757987435
4.595922527815144
4.638455172833432
4.61073753109074
4.5048759469579185
4.306438539288646
3.990344995172057
3.518416740736594
2.8125156511943925
0.8854817920553129
1.2974731097506038
1.7355682108932204
2.1892283005465076
2.632344609289019
3.047611162002527
3.4294658250895793
3.7750337272743746
4.073718813794423
4.312895564472016
4.487116757987435
4.595922527815144
4.638455172833432
4.61073753109074
4.5048759469579185
4.306438539288646
3.990344995172057
3.518416740736594
2.8125156511943925
0.8854817920553129
1.2974731097506038
1.7355682108932204
2.1892283005465076
2.632344609289019
3.047611162002527
3.4294658250895793
3.7750337272743746
4.073718813794423
4.312895564472016
4.487116757987435
4.595922527815144
4.638455172833432
4.61073753109074
4.5048759469579185
4.306438539288646
3.990344995172057
3.518416740736594
2.8125156511943925
0.8854817920553129
1.2974731097506038