# vtk DataFile Version 4.0
SUAVE Model of PROWIM Propeller Wake 
ASCII
DATASET UNSTRUCTURED_GRID

POINTS 1800 float
2.6153 4.9443 1.1198
2.6222 4.9354 1.1511
2.6293 4.9264 1.1824
2.6364 4.9174 1.2139
2.6428 4.9083 1.2454
2.6484 4.8992 1.2771
2.653 4.8901 1.3088
2.6565 4.881 1.3407
2.6589 4.8718 1.3727
2.6603 4.8626 1.4047
2.6608 4.8534 1.4369
2.6604 4.8441 1.4691
2.6592 4.8349 1.5014
2.6572 4.8256 1.5337
2.6545 4.8163 1.5661
2.651 4.807 1.5985
2.6466 4.7977 1.631
2.6413 4.7884 1.6635
2.6345 4.779 1.696
2.6253 4.7697 1.7286
2.5065 4.9758 1.1242
2.5134 4.9758 1.1568
2.5205 4.9758 1.1894
2.5276 4.9758 1.2221
2.534 4.9758 1.2549
2.5396 4.9758 1.2879
2.5442 4.9758 1.3209
2.5477 4.9758 1.3541
2.5501 4.9758 1.3873
2.5515 4.9758 1.4207
2.552 4.9758 1.4541
2.5516 4.9758 1.4877
2.5504 4.9758 1.5212
2.5484 4.9758 1.5549
2.5457 4.9758 1.5886
2.5422 4.9758 1.6223
2.5378 4.9758 1.6561
2.5325 4.9758 1.6899
2.5257 4.9758 1.7238
2.5165 4.9758 1.7576
2.6153 4.9443 1.1198
2.6222 4.9354 1.1511
2.6293 4.9264 1.1824
2.6364 4.9174 1.2139
2.6428 4.9083 1.2454
2.6484 4.8992 1.2771
2.653 4.8901 1.3088
2.6565 4.881 1.3407
2.6589 4.8718 1.3727
2.6603 4.8626 1.4047
2.6608 4.8534 1.4369
2.6604 4.8441 1.4691
2.6592 4.8349 1.5014
2.6572 4.8256 1.5337
2.6545 4.8163 1.5661
2.651 4.807 1.5985
2.6466 4.7977 1.631
2.6413 4.7884 1.6635
2.6345 4.779 1.696
2.6253 4.7697 1.7286
2.7241 4.9153 1.1069
2.731 4.898 1.1344
2.7382 4.8808 1.1621
2.7452 4.8634 1.1898
2.7516 4.846 1.2177
2.7572 4.8286 1.2456
2.7618 4.811 1.2736
2.7653 4.7935 1.3017
2.7677 4.7758 1.3299
2.7691 4.7582 1.3582
2.7696 4.7404 1.3865
2.7692 4.7227 1.415
2.768 4.7049 1.4434
2.766 4.687 1.472
2.7633 4.6692 1.5005
2.7598 4.6513 1.5291
2.7554 4.6334 1.5578
2.7501 4.6155 1.5864
2.7433 4.5975 1.6151
2.7341 4.5796 1.6438
2.8329 4.8909 1.0864
2.8398 4.8667 1.1082
2.847 4.8425 1.13
2.854 4.8182 1.1519
2.8604 4.7938 1.1738
2.866 4.7693 1.1958
2.8706 4.7448 1.2179
2.8741 4.7201 1.2401
2.8765 4.6954 1.2623
2.878 4.6706 1.2847
2.8784 4.6458 1.307
2.878 4.6208 1.3294
2.8768 4.5959 1.3519
2.8748 4.5709 1.3744
2.8721 4.5459 1.3969
2.8686 4.5208 1.4195
2.8642 4.4957 1.442
2.8589 4.4706 1.4647
2.8521 4.4454 1.4873
2.8429 4.4203 1.5099
2.9417 4.8732 1.06
2.9486 4.8439 1.0743
2.9558 4.8146 1.0886
2.9628 4.7852 1.1029
2.9692 4.7557 1.1173
2.9748 4.7261 1.1317
2.9794 4.6964 1.1461
2.9829 4.6666 1.1607
2.9853 4.6367 1.1752
2.9868 4.6067 1.1898
2.9872 4.5767 1.2045
2.9868 4.5466 1.2191
2.9856 4.5164 1.2338
2.9836 4.4862 1.2486
2.9809 4.4559 1.2633
2.9774 4.4256 1.2781
2.973 4.3952 1.2929
2.9677 4.3649 1.3077
2.9609 4.3345 1.3225
2.9517 4.3041 1.3373
3.0505 4.8633 1.0298
3.0574 4.8313 1.0354
3.0646 4.7992 1.041
3.0716 4.767 1.0467
3.078 4.7347 1.0524
3.0836 4.7022 1.0581
3.0882 4.6697 1.0638
3.0917 4.6371 1.0695
3.0941 4.6043 1.0753
3.0956 4.5715 1.0811
3.096 4.5386 1.0869
3.0956 4.5056 1.0926
3.0944 4.4726 1.0985
3.0924 4.4394 1.1043
3.0897 4.4063 1.1101
3.0862 4.3731 1.1159
3.0818 4.3399 1.1218
3.0765 4.3066 1.1276
3.0697 4.2733 1.1335
3.0605 4.24 1.1393
3.1593 4.8622 0.998
3.1662 4.8299 0.9946
3.1734 4.7975 0.9911
3.1804 4.765 0.9877
3.1868 4.7323 0.9842
3.1924 4.6996 0.9808
3.197 4.6667 0.9773
3.2005 4.6338 0.9738
3.2029 4.6008 0.9703
3.2044 4.5676 0.9668
3.2048 4.5344 0.9633
3.2044 4.5011 0.9598
3.2032 4.4677 0.9563
3.2012 4.4343 0.9527
3.1985 4.4009 0.9492
3.195 4.3674 0.9456
3.1906 4.3338 0.9421
3.1853 4.3002 0.9385
3.1785 4.2666 0.935
3.1693 4.233 0.9314
3.2681 4.87 0.9671
3.275 4.8398 0.9549
3.2822 4.8096 0.9427
3.2892 4.7793 0.9304
3.2956 4.7489 0.9181
3.3012 4.7184 0.9057
3.3058 4.6878 0.8934
3.3093 4.6571 0.8809
3.3117 4.6263 0.8685
3.3132 4.5954 0.8559
3.3136 4.5644 0.8434
3.3132 4.5334 0.8309
3.312 4.5023 0.8183
3.31 4.4712 0.8057
3.3073 4.44 0.793
3.3038 4.4088 0.7804
3.2994 4.3775 0.7677
3.2941 4.3463 0.7551
3.2873 4.315 0.7424
3.2781 4.2836 0.7297
3.3769 4.8859 0.9396
3.3838 4.8603 0.9196
3.391 4.8346 0.8995
3.398 4.8089 0.8793
3.4044 4.783 0.8591
3.41 4.7571 0.8388
3.4146 4.7311 0.8185
3.4181 4.705 0.798
3.4205 4.6789 0.7776
3.422 4.6527 0.757
3.4224 4.6264 0.7365
3.422 4.6 0.7159
3.4208 4.5736 0.6952
3.4188 4.5472 0.6745
3.4161 4.5207 0.6538
3.4126 4.4942 0.633
3.4082 4.4677 0.6122
3.4029 4.4411 0.5915
3.3961 4.4145 0.5706
3.3869 4.3879 0.5498
3.4857 4.9088 0.9175
3.4926 4.8897 0.8912
3.4998 4.8706 0.8648
3.5068 4.8514 0.8383
3.5132 4.8321 0.8118
3.5188 4.8128 0.7852
3.5234 4.7934 0.7584
3.5269 4.774 0.7316
3.5293 4.7545 0.7047
3.5308 4.735 0.6778
3.5312 4.7154 0.6508
3.5308 4.6958 0.6237
3.5296 4.6761 0.5966
3.5276 4.6564 0.5694
3.5249 4.6367 0.5422
3.5214 4.6169 0.515
3.517 4.5972 0.4877
3.5117 4.5774 0.4604
3.5049 4.5576 0.4331
3.4957 4.5377 0.4058
3.5945 4.9369 0.9026
3.6014 4.9258 0.8721
3.6086 4.9147 0.8414
3.6156 4.9035 0.8107
3.622 4.8924 0.7799
3.6276 4.8812 0.7489
3.6322 4.8699 0.7179
3.6357 4.8586 0.6868
3.6381 4.8473 0.6556
3.6396 4.836 0.6243
3.64 4.8246 0.593
3.6396 4.8132 0.5616
3.6384 4.8018 0.5301
3.6364 4.7903 0.4986
3.6337 4.7789 0.467
3.6302 4.7674 0.4354
3.6258 4.7559 0.4037
3.6205 4.7444 0.3721
3.6137 4.733 0.3404
3.6045 4.7214 0.3086
3.7033 4.968 0.896
3.7102 4.9658 0.8636
3.7174 4.9635 0.8311
3.7244 4.9613 0.7985
3.7308 4.9591 0.7658
3.7364 4.9568 0.733
3.741 4.9545 0.7001
3.7445 4.9523 0.6671
3.7469 4.95 0.634
3.7484 4.9477 0.6008
3.7488 4.9454 0.5676
3.7484 4.9432 0.5342
3.7472 4.9409 0.5009
3.7452 4.9386 0.4674
3.7425 4.9363 0.4339
3.739 4.934 0.4004
3.7346 4.9317 0.3669
3.7293 4.9293 0.3333
3.7225 4.927 0.2997
3.7133 4.9247 0.266
3.8121 4.9997 0.8983
3.819 5.0065 0.8665
3.8262 5.0134 0.8347
3.8332 5.0202 0.8027
3.8396 5.027 0.7707
3.8452 5.0339 0.7385
3.8498 5.0408 0.7063
3.8533 5.0477 0.674
3.8557 5.0547 0.6415
3.8572 5.0616 0.609
3.8576 5.0686 0.5765
3.8572 5.0756 0.5438
3.856 5.0826 0.5111
3.854 5.0896 0.4784
3.8513 5.0966 0.4456
3.8478 5.1036 0.4128
3.8434 5.1106 0.3799
3.8381 5.1177 0.347
3.8313 5.1247 0.3141
3.8221 5.1318 0.2812
3.9209 5.0296 0.9092
3.9278 5.0449 0.8805
3.935 5.0602 0.8518
3.942 5.0756 0.823
3.9484 5.091 0.7941
3.954 5.1065 0.7651
3.9586 5.122 0.736
3.9621 5.1376 0.7069
3.9645 5.1532 0.6777
3.966 5.1688 0.6484
3.9664 5.1845 0.619
3.966 5.2002 0.5896
3.9648 5.2159 0.5601
3.9628 5.2316 0.5306
3.9601 5.2474 0.5011
3.9566 5.2632 0.4715
3.9522 5.279 0.4419
3.9469 5.2948 0.4122
3.9401 5.3106 0.3826
3.9309 5.3264 0.3529
4.0297 5.0553 0.928
4.0366 5.0779 0.9046
4.0438 5.1006 0.8812
4.0508 5.1233 0.8578
4.0572 5.1461 0.8343
4.0628 5.1689 0.8107
4.0674 5.1918 0.787
4.0709 5.2148 0.7633
4.0733 5.2378 0.7395
4.0748 5.2609 0.7157
4.0752 5.284 0.6918
4.0749 5.3072 0.6679
4.0736 5.3304 0.6439
4.0716 5.3537 0.62
4.0689 5.3769 0.5959
4.0654 5.4002 0.5719
4.061 5.4236 0.5478
4.0557 5.4469 0.5237
4.0489 5.4703 0.4996
4.0397 5.4936 0.4755
4.1385 5.0749 0.9531
4.1454 5.103 0.9369
4.1526 5.1312 0.9206
4.1596 5.1595 0.9043
4.166 5.1879 0.888
4.1716 5.2163 0.8717
4.1762 5.2449 0.8553
4.1797 5.2735 0.8388
4.1821 5.3021 0.8224
4.1836 5.3308 0.8058
4.184 5.3596 0.7893
4.1837 5.3884 0.7727
4.1824 5.4173 0.7561
4.1804 5.4462 0.7395
4.1777 5.4752 0.7228
4.1742 5.5042 0.7061
4.1698 5.5332 0.6895
4.1645 5.5622 0.6728
4.1577 5.5912 0.6561
4.1485 5.6203 0.6394
4.2473 5.0867 0.9826
4.2542 5.1183 0.9748
4.2614 5.1498 0.9669
4.2684 5.1815 0.9591
4.2748 5.2133 0.9513
4.2804 5.2451 0.9434
4.285 5.277 0.9355
4.2885 5.309 0.9276
4.2909 5.341 0.9196
4.2924 5.3731 0.9117
4.2928 5.4053 0.9037
4.2925 5.4375 0.8958
4.2912 5.4698 0.8878
4.2892 5.5021 0.8798
4.2865 5.5345 0.8718
4.283 5.5668 0.8638
4.2786 5.5992 0.8557
4.2733 5.6317 0.8477
4.2665 5.6641 0.8397
4.2573 5.6966 0.8317
4.3561 5.09 1.0142
4.363 5.1224 1.0154
4.3702 5.1549 1.0166
4.3772 5.1875 1.0178
4.3836 5.2202 1.019
4.3892 5.2529 1.0202
4.3938 5.2857 1.0214
4.3973 5.3186 1.0226
4.3997 5.3515 1.0238
4.4012 5.3845 1.025
4.4016 5.4176 1.0263
4.4013 5.4507 1.0275
4.4 5.4838 1.0287
4.398 5.517 1.0299
4.3953 5.5502 1.0311
4.3918 5.5835 1.0324
4.3874 5.6167 1.0336
4.3821 5.65 1.0348
4.3753 5.6833 1.036
4.3661 5.7167 1.0373
4.4649 5.0844 1.0455
4.4718 5.1153 1.0556
4.479 5.1462 1.0657
4.486 5.1771 1.0758
4.4924 5.2081 1.086
4.498 5.2392 1.0962
4.5026 5.2704 1.1063
4.5061 5.3016 1.1166
4.5085 5.3328 1.1268
4.51 5.3641 1.137
4.5104 5.3955 1.1473
4.5101 5.4269 1.1576
4.5088 5.4583 1.1678
4.5068 5.4898 1.1781
4.5041 5.5213 1.1884
4.5006 5.5528 1.1987
4.4962 5.5844 1.2091
4.4909 5.6159 1.2194
4.4841 5.6475 1.2297
4.4749 5.6791 1.2401
4.5737 5.0704 1.0741
4.5806 5.0973 1.0923
4.5878 5.1242 1.1105
4.5948 5.1511 1.1288
4.6012 5.1781 1.147
4.6068 5.2051 1.1653
4.6114 5.2322 1.1837
4.6149 5.2593 1.2021
4.6173 5.2865 1.2205
4.6188 5.3137 1.2389
4.6192 5.3409 1.2574
4.6189 5.3682 1.2758
4.6176 5.3954 1.2943
4.6156 5.4228 1.3128
4.6129 5.4501 1.3313
4.6094 5.4774 1.3499
4.605 5.5048 1.3684
4.5997 5.5322 1.387
4.5929 5.5596 1.4055
4.5837 5.587 1.4241
4.6825 5.0491 1.0977
4.6894 5.0699 1.1226
4.6966 5.0907 1.1475
4.7036 5.1115 1.1724
4.71 5.1324 1.1974
4.7156 5.1533 1.2224
4.7202 5.1742 1.2474
4.7237 5.1951 1.2725
4.7261 5.2161 1.2976
4.7276 5.2371 1.3227
4.7281 5.2581 1.3479
4.7277 5.2791 1.3731
4.7264 5.3002 1.3983
4.7245 5.3212 1.4235
4.7217 5.3423 1.4487
4.7182 5.3634 1.4739
4.7138 5.3845 1.4992
4.7085 5.4056 1.5245
4.7017 5.4267 1.5497
4.6925 5.4478 1.575
4.7913 5.0221 1.1145
4.7982 5.0352 1.1441
4.8054 5.0483 1.1738
4.8124 5.0614 1.2034
4.8188 5.0746 1.2331
4.8244 5.0877 1.2629
4.829 5.1009 1.2926
4.8325 5.1141 1.3224
4.8349 5.1273 1.3522
4.8364 5.1405 1.3821
4.8369 5.1537 1.4119
4.8365 5.1669 1.4418
4.8352 5.1801 1.4717
4.8333 5.1933 1.5015
4.8305 5.2066 1.5315
4.827 5.2198 1.5614
4.8226 5.233 1.5913
4.8173 5.2463 1.6212
4.8105 5.2595 1.6512
4.8013 5.2728 1.6811
4.9001 4.9915 1.1232
4.907 4.9959 1.1552
4.9142 5.0003 1.1873
4.9212 5.0048 1.2194
4.9276 5.0092 1.2515
4.9332 5.0136 1.2837
4.9378 5.0181 1.3158
4.9413 5.0225 1.348
4.9437 5.0269 1.3801
4.9452 5.0314 1.4123
4.9457 5.0358 1.4445
4.9453 5.0403 1.4767
4.944 5.0447 1.5089
4.9421 5.0492 1.5411
4.9393 5.0536 1.5733
4.9358 5.0581 1.6055
4.9314 5.0625 1.6378
4.9261 5.067 1.67
[...]
CELL_DATA 1653
SCALARS circulation float 1
LOOKUP_TABLE default
0.9069087584910696
1.3330225078180549
1.7881878593815945
2.261157441311794
2.724559256134698
3.1604668770699638
3.5612065445396457
3.9248214337565113
4.242530860304605
4.499300432535079
4.686218921686185
4.802139597611378
4.846862851847124
4.817072875322639
4.704791372451391
4.494354670426692
4.158747920913788
3.660232903999435
2.920853124135841
0.9069087584910696
1.3330225078180549
1.7881878593815945
2.261157441311794
2.724559256134698
3.1604668770699638
3.5612065445396457
3.9248214337565113
4.242530860304605
4.499300432535079
4.686218921686185
4.802139597611378
4.846862851847124
4.817072875322639
4.704791372451391
4.494354670426692
4.158747920913788
3.660232903999435
2.920853124135841
0.9069087584910696
1.3330225078180549
1.7881878593815945
2.261157441311794
2.724559256134698
3.1604668770699638
3.5612065445396457
3.9248214337565113
4.242530860304605
4.499300432535079
4.686218921686185
4.802139597611378
4.846862851847124
4.817072875322639
4.704791372451391
4.494354670426692
4.158747920913788
3.660232903999435
2.920853124135841
0.9069087584910696
1.3330225078180549
1.7881878593815945
2.261157441311794
2.724559256134698
3.1604668770699638
3.5612065445396457
3.9248214337565113
4.242530860304605
4.499300432535079
4.686218921686185
4.802139597611378
4.846862851847124
4.817072875322639
4.704791372451391
4.494354670426692
4.158747920913788
3.660232903999435
2.920853124135841
0.9069087584910696
1.3330225078180549
1.7881878593815945
2.261157441311794
2.724559256134698
3.1604668770699638
3.5612065445396457
3.9248214337565113
4.242530860304605
4.499300432535079
4.686218921686185
4.802139597611378
4.846862851847124
4.817072875322639
4.704791372451391
4.494354670426692
4.158747920913788
3.660232903999435
2.920853124135841
0.9069087584910696
1.3330225078180549
1.7881878593815945
2.261157441311794
2.724559256134698
3.1604668770699638
3.5612065445396457
3.9248214337565113
4.242530860304605
4.499300432535079
4.686218921686185
4.802139597611378
4.846862851847124
4.817072875322639
4.704791372451391
4.494354670426692
4.158747920913788
3.660232903999435
2.920853124135841
0.9069087584910696
1.3330225078180549
1.7881878593815945
2.261157441311794
2.724559256134698
3.1604668770699638
3.5612065445396457
3.9248214337565113
4.242530860304605
4.499300432535079
4.686218921686185
4.802139597611378
4.846862851847124
4.817072875322639
4.704791372451391
4.494354670426692
4.158747920913788
3.660232903999435
2.920853124135841
0.9069087584910696
1.3330225078180549
1.7881878593815945
2.261157441311794
2.724559256134698
3.1604668770699638
3.5612065445396457
3.9248214337565113
4.242530860304605
4.499300432535079
4.686218921686185
4.802139597611378
4.846862851847124
4.817072875322639
4.704791372451391
4.494354670426692
4.158747920913788
3.660232903999435
2.920853124135841
0.9069087584910696
1.3330225078180549
1.7881878593815945
2.261157441311794
2.724559256134698
3.1604668770699638
3.5612065445396457
3.9248214337565113
4.242530860304605
4.499300432535079
4.686218921686185
4.802139597611378
4.846862851847124
4.817072875322639
4.704791372451391
4.494354670426692
4.158747920913788
3.660232903999435
2.920853124135841
0.9069087584910696
1.3330225078180549
1.7881878593815945
2.261157441311794
2.724559256134698
3.1604668770699638
3.5612065445396457
3.9248214337565113
4.242530860304605
4.499300432535079
4.686218921686185
4.802139597611378
4.846862851847124
4.817072875322639
4.704791372451391
4.494354670426692
4.158747920913788
3.660232903999435
2.920853124135841
0.9069087584910696
1.3330225078180549
1.7881878593815945
2.261157441311794
2.724559256134698
3.1604668770699638
3.5612065445396457
3.9248214337565113
4.242530860304605
4.499300432535079
4.686218921686185
4.802139597611378
4.846862851847124
4.817072875322639
4.704791372451391
4.494354670426692
4.158747920913788
3.660232903999435
2.920853124135841
0.9069087584910696
1.3330225078180549
1.7881878593815945
2.261157441311794
2.724559256134698
3.1604668770699638
3.5612065445396457
3.9248214337565113
4.242530860304605
4.499300432535079
4.686218921686185
4.802139597611378
4.846862851847124
4.817072875322639
4.704791372451391
4.494354670426692
4.158747920913788
3.660232903999435
2.920853124135841
0.9069087584910696
1.3330225078180549
1.7881878593815945
2.261157441311794
2.724559256134698
3.1604668770699638
3.5612065445396457
3.9248214337565113
4.242530860304605
4.499300432535079
4.686218921686185
4.802139597611378
4.846862851847124
4.817072875322639
4.704791372451391
4.494354670426692
4.158747920913788
3.660232903999435
2.920853124135841
0.9069087584910696
1.3330225078180549
1.7881878593815945
2.261157441311794
2.724559256134698
3.1604668770699638
3.5612065445396457
3.9248214337565113
4.242530860304605
4.499300432535079
4.686218921686185
4.802139597611378
4.846862851847124
4.817072875322639
4.704791372451391
4.494354670426692
4.158747920913788
3.660232903999435
2.920853124135841
0.9069087584910696
1.3330225078180549
1.7881878593815945
2.261157441311794
2.724559256134698
3.1604668770699638
3.5612065445396457
3.9248214337565113
4.242530860304605
4.499300432535079
4.686218921686185
4.802139597611378
4.846862851847124
4.817072875322639
4.704791372451391
4.494354670426692
4.158747920913788
3.660232903999435
2.920853124135841
0.9069087584910696
1.3330225078180549
1.7881878593815945
2.261157441311794
2.724559256134698
3.1604668770699638
3.5612065445396457
3.9248214337565113
4.242530860304605
4.499300432535079
4.686218921686185
4.802139597611378
4.846862851847124
4.817072875322639
4.704791372451391
4.494354670426692
4.158747920913788
3.660232903999435
2.920853124135841
0.9069087584910696
1.3330225078180549
1.7881878593815945
2.261157441311794
2.724559256134698
3.1604668770699638
3.5612065445396457
3.9248214337565113
4.242530860304605
4.499300432535079
4.686218921686185
4.802139597611378
4.846862851847124
4.817072875322639
4.704791372451391
4.494354670426692
4.158747920913788
3.660232903999435
2.920853124135841
0.9069087584910696
1.3330225078180549
1.7881878593815945
2.261157441311794
2.724559256134698
3.1604668770699638
3.5612065445396457
3.9248214337565113
4.242530860304605
4.499300432535079
4.686218921686185
4.802139597611378
4.846862851847124
4.817072875322639
4.704791372451391
4.494354670426692
4.158747920913788
3.660232903999435
2.920853124135841
0.9069087584910696
1.3330225078180549
1.7881878593815945
2.261157441311794
2.724559256134698
3.1604668770699638
3.5612065445396457
3.9248214337565113
4.242530860304605
4.499300432535079
4.686218921686185
4.802139597611378
4.846862851847124
4.817072875322639
4.704791372451391
4.494354670426692
4.158747920913788
3.660232903999435
2.920853124135841
0.9069087584910696
1.3330225078180549
1.7881878593815945
2.261157441311794
2.724559256134698
3.1604668770699638
3.5612065445396457
3.9248214337565113
4.242530860304605
4.499300432535079
4.686218921686185
4.802139597611378
4.846862851847124
4.817072875322639
4.704791372451391
4.494354670426692
4.158747920913788
3.660232903999435
2.920853124135841
0.9069087584910696
1.3330225078180549
1.7881878593815945
2.261157441311794
2.724559256134698
3.1604668770699638
3.5612065445396457
3.9248214337565113
4.242530860304605
4.499300432535079
4.686218921686185
4.802139597611378
4.846862851847124
4.817072875322639
4.704791372451391
4.494354670426692
4.158747920913788
3.660232903999435
2.920853124135841
0.9069087584910696
1.3330225078180549
1.7881878593815945
2.261157441311794
2.724559256134698
3.1604668770699638
3.5612065445396457
3.9248214337565113
4.242530860304605
4.499300432535079
4.686218921686185
4.802139597611378
4.846862851847124
4.817072875322639
4.704791372451391
4.494354670426692
4.158747920913788
3.660232903999435
2.920853124135841
0.9069087584910696
1.3330225078180549
1.7881878593815945
2.261157441311794
2.724559256134698
3.1604668770699638
3.5612065445396457
3.9248214337565113
4.242530860304605
4.499300432535079
4.686218921686185
4.802139597611378
4.846862851847124
4.817072875322639
4.704791372451391
4.494354670426692
4.158747920913788
3.660232903999435
2.920853124135841
0.9069087584910696
1.3330225078180549
1.7881878593815945
2.261157441311794
2.724559256134698
3.1604668770699638
3.5612065445396457
3.9248214337565113
4.242530860304605
4.499300432535079
4.686218921686185
4.802139597611378
4.846862851847124
4.817072875322639
4.704791372451391
4.494354670426692
4.158747920913788
3.660232903999435
2.920853124135841
0.9069087584910696
1.3330225078180549
1.7881878593815945
2.261157441311794
2.724559256134698
3.1604668770699638
3.5612065445396457
3.9248214337565113
4.242530860304605
4.499300432535079
4.686218921686185
4.802139597611378
4.846862851847124
4.817072875322639
4.704791372451391
4.494354670426692
4.158747920913788
3.660232903999435
2.920853124135841
0.9069087584910696
1.3330225078180549
1.7881878593815945
2.261157441311794
2.724559256134698
3.1604668770699638
3.5612065445396457
3.9248214337565113
4.242530860304605
4.499300432535079
4.686218921686185
4.802139597611378
4.846862851847124
4.817072875322639
4.704791372451391
4.494354670426692
4.158747920913788
3.660232903999435
2.920853124135841
0.9069087584910696
1.3330225078180549
1.7881878593815945
2.261157441311794
2.724559256134698
3.1604668770699638
3.5612065445396457
3.9248214337565113
4.242530860304605
4.499300432535079
4.686218921686185
4.802139597611378
4.846862851847124
4.817072875322639
4.704791372451391
4.494354670426692
4.158747920913788
3.660232903999435
2.920853124135841
0.9069087584910696
1.3330225078180549
1.7881878593815945
2.261157441311794
2.724559256134698
3.1604668770699638
3.5612065445396457
3.9248214337565113
4.242530860304605
4.499300432535079
4.686218921686185
4.802139597611378
4.846862851847124
4.817072875322639
4.704791372451391
4.494354670426692
4.158747920913788
3.660232903999435
2.920853124135841
0.9069087584910696
1.3330225078180549
1.7881878593815945
2.261157441311794
2.724559256134698
3.1604668770699638
3.5612065445396457
3.9248214337565113
4.242530860304605
4.499300432535079
4.686218921686185
4.802139597611378
4.846862851847124
4.817072875322639
4.704791372451391
4.494354670426692
4.158747920913788
3.660232903999435
2.920853124135841
0.9069087584910696
1.3330225078180549
1.7881878593815945
2.261157441311794
2.724559256134698
3.1604668770699638
3.5612065445396457
3.9248214337565113
4.242530860304605
4.499300432535079
4.686218921686185
4.802139597611378
4.846862851847124
4.817072875322639
4.704791372451391
4.494354670426692
4.158747920913788
3.660232903999435
2.920853124135841
0.9069087584910696
1.3330225078180549
1.7881878593815945
2.261157441311794
2.724559256134698
3.1604668770699638
3.5612065445396457
3.9248214337565113
4.242530860304605
4.499300432535079
4.686218921686185
4.802139597611378
4.846862851847124
4.817072875322639
4.704791372451391
4.494354670426692
4.158747920913788
3.660232903999435
2.920853124135841
0.9069087584910696
1.3330225078180549
1.7881878593815945
2.261157441311794
2.724559256134698
3.1604668770699638
3.5612065445396457
3.9248214337565113
4.242530860304605
4.499300432535079
4.686218921686185
4.802139597611378
4.846862851847124
4.817072875322639
4.704791372451391
4.494354670426692
4.158747920913788
3.660232903999435
2.920853124135841
0.9069087584910696
1.3330225078180549
1.7881878593815945
2.261157441311794
2.724559256134698
3.1604668770699638
3.5612065445396457
3.9248214337565113
4.242530860304605
4.499300432535079
4.686218921686185
4.802139597611378
4.846862851847124
4.817072875322639
4.704791372451391
4.494354670426692
4.158747920913788
3.660232903999435
2.920853124135841
0.9069087584910696
1.3330225078180549
1.7881878593815945
2.261157441311794
2.724559256134698
3.1604668770699638
3.5612065445396457
3.9248214337565113
4.242530860304605
4.499300432535079
4.686218921686185
4.802139597611378
4.846862851847124
4.817072875322639
4.704791372451391
4.494354670426692
4.158747920913788
3.660232903999435
2.920853124135841
0.9069087584910696
1.3330225078180549
1.7881878593815945
2.261157441311794
2.724559256134698
3.1604668770699638
3.5612065445396457
3.9248214337565113
4.242530860304605
4.499300432535079
4.686218921686185
4.802139597611378
4.846862851847124
4.817072875322639
4.704791372451391
4.494354670426692
4.158747920913788
3.660232903999435
2.920853124135841
0.9069087584910696
1.3330225078180549
1.7881878593815945
2.261157441311794
2.724559256134698
3.1604668770699638
3.5612065445396457
3.9248214337565113
4.242530860304605
4.499300432535079
4.686218921686185
4.802139597611378
4.846862851847124
4.817072875322639
4.704791372451391
4.494354670426692
4.158747920913788
3.660232903999435
2.920853124135841
0.9069087584910696
1.3330225078180549
1.7881878593815945
2.261157441311794
2.724559256134698
3.1604668770699638
3.5612065445396457
3.9248214337565113
4.242530860304605
4.499300432535079
4.686218921686185
4.802139597611378
4.846862851847124
4.817072875322639
4.704791372451391
4.494354670426692
4.158747920913788
3.660232903999435
2.920853124135841
0.9069087584910696
1.3330225078180549
1.7881878593815945
2.261157441311794
2.724559256134698
3.1604668770699638
3.5612065445396457
3.9248214337565113
4.242530860304605
4.499300432535079
4.686218921686185
4.802139597611378
4.846862851847124
4.817072875322639
4.704791372451391
4.494354670426692
4.158747920913788
3.660232903999435
2.920853124135841
0.9069087584910696
1.3330225078180549
1.7881878593815945
2.261157441311794
2.724559256134698
3.1604668770699638
3.5612065445396457
3.9248214337565113
4.242530860304605
4.499300432535079
4.686218921686185
4.802139597611378
4.846862851847124
4.817072875322639
4.704791372451391
4.494354670426692
4.158747920913788
3.660232903999435
2.920853124135841
0.9069087584910696
1.3330225078180549
1.7881878593815945
2.261157441311794
2.724559256134698
3.1604668770699638
3.5612065445396457
3.9248214337565113
4.242530860304605
4.499300432535079
4.686218921686185
4.802139597611378
4.846862851847124
4.817072875322639
4.704791372451391
4.494354670426692
4.158747920913788
3.660232903999435
2.920853124135841
0.9069087584910696
1.3330225078180549
1.7881878593815945
2.261157441311794
2.724559256134698
3.1604668770699638
3.5612065445396457
3.9248214337565113
4.242530860304605
4.499300432535079
4.686218921686185
4.802139597611378
4.846862851847124
4.817072875322639
4.704791372451391
4.494354670426692
4.158747920913788
3.660232903999435
2.920853124135841
0.9069087584910696
1.3330225078180549
1.7881878593815945
2.261157441311794
2.724559256134698
3.1604668770699638
3.5612065445396457
3.9248214337565113
4.242530860304605
4.499300432535079
4.686218921686185
4.802139597611378
4.846862851847124
4.817072875322639
4.704791372451391
4.494354670426692
4.158747920913788
3.660232903999435
2.920853124135841
0.9069087584910696
1.3330225078180549
1.7881878593815945
2.261157441311794
2.724559256134698
3.1604668770699638
3.5612065445396457
3.9248214337565113
4.242530860304605
4.499300432535079
4.686218921686185
4.802139597611378
4.846862851847124
4.817072875322639
4.704791372451391
4.494354670426692
4.158747920913788
3.660232903999435
2.920853124135841
0.9069087584910696
1.3330225078180549
1.7881878593815945
2.261157441311794
2.724559256134698
3.1604668770699638
3.5612065445396457
3.9248214337565113
4.242530860304605
4.499300432535079
4.686218921686185
4.802139597611378
4.846862851847124
4.817072875322639
4.704791372451391
4.494354670426692
4.158747920913788
3.660232903999435
2.920853124135841
0.9069087584910696
1.3330225078180549
1.7881878593815945
2.261157441311794
2.724559256134698
3.1604668770699638
3.5612065445396457
3.9248214337565113
4.242530860304605
4.499300432535079
4.686218921686185
4.802139597611378
4.846862851847124
4.817072875322639
4.704791372451391
4.494354670426692
4.158747920913788
3.660232903999435
2.920853124135841
0.9069087584910696
1.3330225078180549
1.7881878593815945
2.261157441311794
2.724559256134698
3.1604668770699638
3.5612065445396457
3.9248214337565113
4.242530860304605
4.499300432535079
4.686218921686185
4.802139597611378
4.846862851847124
4.817072875322639
4.704791372451391
4.494354670426692
4.158747920913788
3.660232903999435
2.920853124135841
0.9069087584910696
1.3330225078180549
1.7881878593815945
2.261157441311794
2.724559256134698
3.1604668770699638
3.5612065445396457
3.9248214337565113
4.242530860304605
4.499300432535079
4.686218921686185
4.802139597611378
4.846862851847124
4.817072875322639
4.704791372451391
4.494354670426692
4.158747920913788
3.660232903999435
2.920853124135841
0.9069087584910696
1.3330225078180549
1.7881878593815945
2.261157441311794
2.724559256134698
3.1604668770699638
3.5612065445396457
3.9248214337565113
4.242530860304605
4.499300432535079
4.686218921686185
4.802139597611378
4.846862851847124
4.817072875322639
4.704791372451391
4.494354670426692
4.158747920913788
3.660232903999435
2.920853124135841
0.9069087584910696
1.3330225078180549
1.7881878593815945
2.261157441311794
2.724559256134698
3.1604668770699638
3.5612065445396457
3.9248214337565113
4.242530860304605
4.499300432535079
4.686218921686185
4.802139597611378
4.846862851847124
4.817072875322639
4.704791372451391
4.494354670426692
4.158747920913788
3.660232903999435
2.920853124135841
0.9069087584910696
1.3330225078180549
1.7881878593815945
2.261157441311794
2.724559256134698
3.1604668770699638
3.5612065445396457
3.9248214337565113
4.242530860304605
4.499300432535079
4.686218921686185
4.802139597611378
4.846862851847124
4.817072875322639
4.704791372451391
4.494354670426692
4.158747920913788
3.660232903999435
2.920853124135841
0.9069087584910696
1.3330225078180549
1.7881878593815945
2.261157441311794
2.724559256134698
3.1604668770699638
3.5612065445396457
3.9248214337565113
4.242530860304605
4.499300432535079
4.686218921686185
4.802139597611378
4.846862851847124
4.817072875322639
4.704791372451391
4.494354670426692
4.158747920913788
3.660232903999435
2.920853124135841
0.9069087584910696
1.3330225078180549
1.7881878593815945
2.261157441311794
2.724559256134698
3.1604668770699638
3.5612065445396457
3.9248214337565113
4.242530860304605
4.499300432535079
4.686218921686185
4.802139597611378
4.846862851847124
4.817072875322639
4.704791372451391
4.494354670426692
4.158747920913788
3.660232903999435
2.920853124135841
0.9069087584910696
1.3330225078180549
1.7881878593815945
2.261157441311794
2.724559256134698
3.1604668770699638
3.5612065445396457
3.9248214337565113
4.242530860304605
4.499300432535079
4.686218921686185
4.802139597611378
4.846862851847124
4.817072875322639
4.704791372451391
4.494354670426692
4.158747920913788
3.660232903999435
2.920853124135841
0.9069087584910696
1.3330225078180549
1.7881878593815945
2.261157441311794
2.724559256134698
3.1604668770699638
3.5612065445396457
3.9248214337565113
4.242530860304605
4.499300432535079
4.686218921686185
4.802139597611378
4.846862851847124
4.817072875322639
4.704791372451391
4.494354670426692
4.158747920913788
3.660232903999435
2.920853124135841
0.9069087584910696
1.3330225078180549
1.7881878593815945
2.261157441311794
2.724559256134698
3.1604668770699638
3.5612065445396457
3.9248214337565113
4.242530860304605
4.499300432535079
4.686218921686185
4.802139597611378
4.846862851847124
4.817072875322639
4.704791372451391
4.494354670426692
4.158747920913788
3.660232903999435
2.920853124135841
0.9069087584910696
1.3330225078180549
1.7881878593815945
2.261157441311794
2.724559256134698
3.1604668770699638
3.5612065445396457
3.9248214337565113
4.242530860304605
4.499300432535079
4.686218921686185
4.802139597611378
4.846862851847124
4.817072875322639
4.704791372451391
4.494354670426692
4.158747920913788
3.660232903999435
2.920853124135841
0.9069087584910696
1.3330225078180549
1.7881878593815945
2.261157441311794
2.724559256134698
3.1604668770699638
3.5612065445396457
3.9248214337565113
4.242530860304605
4.499300432535079
4.686218921686185
4.802139597611378
4.846862851847124
4.817072875322639
4.704791372451391
4.494354670426692
4.158747920913788
3.660232903999435
2.920853124135841
0.9069087584910696
1.3330225078180549
1.7881878593815945
2.261157441311794
2.724559256134698