# vtk DataFile Version 4.0
SUAVE Model of PROWIM Wing 
ASCII
DATASET UNSTRUCTURED_GRID

POINTS 156 float
7.7 -0.0 0.25
7.9794 -0.0 0.25
8.2588 -0.0 0.25
8.5382 -0.0 0.25
8.8176 -0.0 0.25
8.8176 -0.0 0.25
7.7217 -0.0691 0.25
7.996 -0.0691 0.25
8.2703 -0.0691 0.25
8.5446 -0.0691 0.25
8.8189 -0.0691 0.25
8.8189 -0.0691 0.25
7.7433 -0.1382 0.25
8.0126 -0.1382 0.25
8.2818 -0.1382 0.25
8.551 -0.1382 0.25
8.8203 -0.1382 0.25
8.8203 -0.1382 0.25
7.765 -0.2072 0.25
8.0292 -0.2072 0.25
8.2933 -0.2072 0.25
8.5575 -0.2072 0.25
8.8216 -0.2072 0.25
8.8216 -0.2072 0.25
7.7867 -0.2763 0.25
8.0457 -0.2763 0.25
8.3048 -0.2763 0.25
8.5639 -0.2763 0.25
8.823 -0.2763 0.25
8.823 -0.2763 0.25
7.8083 -0.3454 0.25
8.0623 -0.3454 0.25
8.3163 -0.3454 0.25
8.5703 -0.3454 0.25
8.8243 -0.3454 0.25
8.8243 -0.3454 0.25
7.83 -0.4145 0.25
8.0789 -0.4145 0.25
8.3278 -0.4145 0.25
8.5767 -0.4145 0.25
8.8257 -0.4145 0.25
8.8257 -0.4145 0.25
7.8517 -0.4836 0.25
8.0955 -0.4836 0.25
8.3393 -0.4836 0.25
8.5832 -0.4836 0.25
8.827 -0.4836 0.25
8.827 -0.4836 0.25
7.8733 -0.5526 0.25
8.1121 -0.5526 0.25
8.3508 -0.5526 0.25
8.5896 -0.5526 0.25
8.8284 -0.5526 0.25
8.8284 -0.5526 0.25
7.895 -0.6217 0.25
8.1287 -0.6217 0.25
8.3623 -0.6217 0.25
8.596 -0.6217 0.25
8.8297 -0.6217 0.25
8.8297 -0.6217 0.25
7.9166 -0.6908 0.25
8.1452 -0.6908 0.25
8.3738 -0.6908 0.25
8.6024 -0.6908 0.25
8.831 -0.6908 0.25
8.831 -0.6908 0.25
7.9383 -0.7599 0.25
8.1618 -0.7599 0.25
8.3854 -0.7599 0.25
8.6089 -0.7599 0.25
8.8324 -0.7599 0.25
8.8324 -0.7599 0.25
7.96 -0.829 0.25
8.1784 -0.829 0.25
8.3969 -0.829 0.25
8.6153 -0.829 0.25
8.8337 -0.829 0.25
8.8337 -0.829 0.25
7.9816 -0.898 0.25
8.195 -0.898 0.25
8.4084 -0.898 0.25
8.6217 -0.898 0.25
8.8351 -0.898 0.25
8.8351 -0.898 0.25
8.0033 -0.9671 0.25
8.2116 -0.9671 0.25
8.4199 -0.9671 0.25
8.6281 -0.9671 0.25
8.8364 -0.9671 0.25
8.8364 -0.9671 0.25
8.025 -1.0362 0.25
8.2282 -1.0362 0.25
8.4314 -1.0362 0.25
8.6346 -1.0362 0.25
8.8378 -1.0362 0.25
8.8378 -1.0362 0.25
8.0466 -1.1053 0.25
8.2448 -1.1053 0.25
8.4429 -1.1053 0.25
8.641 -1.1053 0.25
8.8391 -1.1053 0.25
8.8391 -1.1053 0.25
8.0683 -1.1744 0.25
8.2613 -1.1744 0.25
8.4544 -1.1744 0.25
8.6474 -1.1744 0.25
8.8405 -1.1744 0.25
8.8405 -1.1744 0.25
8.09 -1.2434 0.25
8.2779 -1.2434 0.25
8.4659 -1.2434 0.25
8.6538 -1.2434 0.25
8.8418 -1.2434 0.25
8.8418 -1.2434 0.25
8.1116 -1.3125 0.25
8.2945 -1.3125 0.25
8.4774 -1.3125 0.25
8.6603 -1.3125 0.25
8.8431 -1.3125 0.25
8.8431 -1.3125 0.25
8.1333 -1.3816 0.25
8.3111 -1.3816 0.25
8.4889 -1.3816 0.25
8.6667 -1.3816 0.25
8.8445 -1.3816 0.25
8.8445 -1.3816 0.25
8.155 -1.4507 0.25
8.3277 -1.4507 0.25
8.5004 -1.4507 0.25
8.6731 -1.4507 0.25
8.8458 -1.4507 0.25
8.8458 -1.4507 0.25
8.1766 -1.5198 0.25
8.3443 -1.5198 0.25
8.5119 -1.5198 0.25
8.6795 -1.5198 0.25
8.8472 -1.5198 0.25
8.8472 -1.5198 0.25
8.1983 -1.5888 0.25
8.3608 -1.5888 0.25
8.5234 -1.5888 0.25
8.686 -1.5888 0.25
8.8485 -1.5888 0.25
8.8485 -1.5888 0.25
8.22 -1.6579 0.25
8.3774 -1.6579 0.25
8.5349 -1.6579 0.25
8.6924 -1.6579 0.25
8.8499 -1.6579 0.25
8.8499 -1.6579 0.25
8.2416 -1.727 0.25
8.394 -1.727 0.25
8.5464 -1.727 0.25
8.6988 -1.727 0.25
8.8512 -1.727 0.25
8.8512 -1.727 0.25

CELLS 125 625
4 0 1 7 6
4 1 2 8 7
4 2 3 9 8
4 3 4 10 9
4 4 5 11 10
4 6 7 13 12
4 7 8 14 13
4 8 9 15 14
4 9 10 16 15
4 10 11 17 16
4 12 13 19 18
4 13 14 20 19
4 14 15 21 20
4 15 16 22 21
4 16 17 23 22
4 18 19 25 24
4 19 20 26 25
4 20 21 27 26
4 21 22 28 27
4 22 23 29 28
4 24 25 31 30
4 25 26 32 31
4 26 27 33 32
4 27 28 34 33
4 28 29 35 34
4 30 31 37 36
4 31 32 38 37
4 32 33 39 38
4 33 34 40 39
4 34 35 41 40
4 36 37 43 42
4 37 38 44 43
4 38 39 45 44
4 39 40 46 45
4 40 41 47 46
4 42 43 49 48
4 43 44 50 49
4 44 45 51 50
4 45 46 52 51
4 46 47 53 52
4 48 49 55 54
4 49 50 56 55
4 50 51 57 56
4 51 52 58 57
4 52 53 59 58
4 54 55 61 60
4 55 56 62 61
4 56 57 63 62
4 57 58 64 63
4 58 59 65 64
4 60 61 67 66
4 61 62 68 67
4 62 63 69 68
4 63 64 70 69
4 64 65 71 70
4 66 67 73 72
4 67 68 74 73
4 68 69 75 74
4 69 70 76 75
4 70 71 77 76
4 72 73 79 78
4 73 74 80 79
4 74 75 81 80
4 75 76 82 81
4 76 77 83 82
4 78 79 85 84
4 79 80 86 85
4 80 81 87 86
4 81 82 88 87
4 82 83 89 88
4 84 85 91 90
4 85 86 92 91
4 86 87 93 92
4 87 88 94 93
4 88 89 95 94
4 90 91 97 96
4 91 92 98 97
4 92 93 99 98
4 93 94 100 99
4 94 95 101 100
4 96 97 103 102
4 97 98 104 103
4 98 99 105 104
4 99 100 106 105
4 100 101 107 106
4 102 103 109 108
4 103 104 110 109
4 104 105 111 110
4 105 106 112 111
4 106 107 113 112
4 108 109 115 114
4 109 110 116 115
4 110 111 117 116
4 111 112 118 117
4 112 113 119 118
4 114 115 121 120
4 115 116 122 121
4 116 117 123 122
4 117 118 124 123
4 118 119 125 124
4 120 121 127 126
4 121 122 128 127
4 122 123 129 128
4 123 124 130 129
4 124 125 131 130
4 126 127 133 132
4 127 128 134 133
4 128 129 135 134
4 129 130 136 135
4 130 131 137 136
4 132 133 139 138
4 133 134 140 139
4 134 135 141 140
4 135 136 142 141
4 136 137 143 142
4 138 139 145 144
4 139 140 146 145
4 140 141 147 146
4 141 142 148 147
4 142 143 149 148
4 144 145 151 150
4 145 146 152 151
4 146 147 153 152
4 147 148 154 153
4 148 149 155 154

CELL_TYPES 125
9
9
9
9
9
9
9
9
9
9
9
9
9
9
9
9
9
9
9
9
9
9
9
9
9
9
9
9
9
9
9
9
9
9
9
9
9
9
9
9
9
9
9
9
9
9
9
9
9
9
9
9
9
9
9
9
9
9
9
9
9
9
9
9
9
9
9
9
9
9
9
9
9
9
9
9
9
9
9
9
9
9
9
9
9
9
9
9
9
9
9
9
9
9
9
9
9
9
9
9
9
9
9
9
9
9
9
9
9
9
9
9
9
9
9
9
9
9
9
9
9
9
9
9
9

CELL_DATA 125
SCALARS i float 1
LOOKUP_TABLE default
0
1
2
3
4
5
6
7
8
9
10
11
12
13
14
15
16
17
18
19
20
21
22
23
24
25
26
27
28
29
30
31
32
33
34
35
36
37
38
39
40
41
42
43
44
45
46
47
48
49
50
51
52
53
54
55
56
57
58
59
60
61
62
63
64
65
66
67
68
69
70
71
72
73
74
75
76
77
78
79
80
81
82
83
84
85
86
87
88
89
90
91
92
93
94
95
96
97
98
99
100
101
102
103
104
105
106
107
108
109
110
111
112
113
114
115
116
117
118
119
120
121
122
123
124
SCALARS cl float 1
LOOKUP_TABLE default
0.8235389566540384
0.8235389566540384
0.8235389566540384
0.8235389566540384
0.8235389566540384
0.7688903933069132
0.7688903933069132
0.7688903933069132
0.7688903933069132
0.7688903933069132
0.6976306831043689
0.6976306831043689
0.6976306831043689
0.6976306831043689
0.6976306831043689
0.6591940152820941
0.6591940152820941
0.6591940152820941
0.6591940152820941
0.6591940152820941
0.5140871672592916
0.5140871672592916
0.5140871672592916
0.5140871672592916
0.5140871672592916
0.8235389596224958
0.8235389596224958
0.8235389596224958
0.8235389596224958
0.8235389596224958
0.7688905918015485
0.7688905918015485
0.7688905918015485
0.7688905918015485
0.7688905918015485
0.6976308572914172
0.6976308572914172
0.6976308572914172
0.6976308572914172
0.6976308572914172
0.6591938623477043
0.6591938623477043
0.6591938623477043
0.6591938623477043
0.6591938623477043
0.5140857599834067
0.5140857599834067
0.5140857599834067
0.5140857599834067
0.5140857599834067
0.26083159506273673
0.26083159506273673
0.26083159506273673
0.26083159506273673
0.26083159506273673
0.2800946714204937
0.2800946714204937
0.2800946714204937
0.2800946714204937
0.2800946714204937
0.27746755113200183
0.27746755113200183
0.27746755113200183
0.27746755113200183
0.27746755113200183
0.23772757663388133
0.23772757663388133
0.23772757663388133
0.23772757663388133
0.23772757663388133
0.1542524471335841
0.1542524471335841
0.1542524471335841
0.1542524471335841
0.1542524471335841
0.2608316039806918
0.2608316039806918
0.2608316039806918
0.2608316039806918
0.2608316039806918
0.28009472991032175
0.28009472991032175
0.28009472991032175
0.28009472991032175
0.28009472991032175
0.2774676915091126
0.2774676915091126
0.2774676915091126
0.2774676915091126
0.2774676915091126
0.2377278699175766
0.2377278699175766
0.2377278699175766
0.2377278699175766
0.2377278699175766
0.15425294415822127
0.15425294415822127
0.15425294415822127
0.15425294415822127
0.15425294415822127
9.941259814204754e-16
9.941259814204754e-16
9.941259814204754e-16
9.941259814204754e-16
9.941259814204754e-16
2.3342449105421203e-15
2.3342449105421203e-15
2.3342449105421203e-15
2.3342449105421203e-15
2.3342449105421203e-15
3.078650041095265e-15
3.078650041095265e-15
3.078650041095265e-15
3.078650041095265e-15
3.078650041095265e-15
2.8327392315222902e-15
2.8327392315222902e-15
2.8327392315222902e-15
2.8327392315222902e-15
2.8327392315222902e-15
1.903161565370933e-15
1.903161565370933e-15
1.903161565370933e-15
1.903161565370933e-15
1.903161565370933e-15
SCALARS Cl/CL float 1
LOOKUP_TABLE default
2.2628368791260653
2.2628368791260653
2.2628368791260653
2.2628368791260653
2.2628368791260653
2.112679095412282
2.112679095412282
2.112679095412282
2.112679095412282
2.112679095412282
1.9168788859148551
1.9168788859148551
1.9168788859148551
1.9168788859148551
1.9168788859148551
1.811266505642844
1.811266505642844
1.811266505642844
1.811266505642844
1.811266505642844
1.4125566152767506
1.4125566152767506
1.4125566152767506
1.4125566152767506
1.4125566152767506
2.262836887282492
2.262836887282492
2.262836887282492
2.262836887282492
2.262836887282492
2.1126796408157236
2.1126796408157236
2.1126796408157236
2.1126796408157236
2.1126796408157236
1.9168793645283724
1.9168793645283724
1.9168793645283724
1.9168793645283724
1.9168793645283724
1.8112660854252276
1.8112660854252276
1.8112660854252276
1.8112660854252276
1.8112660854252276
1.4125527485067018
1.4125527485067018
1.4125527485067018
1.4125527485067018
1.4125527485067018
0.7166866215379085
0.7166866215379085
0.7166866215379085
0.7166866215379085
0.7166866215379085
0.7696157504340724
0.7696157504340724
0.7696157504340724
0.7696157504340724
0.7696157504340724
0.7623972155649356
0.7623972155649356
0.7623972155649356
0.7623972155649356
0.7623972155649356
0.6532037412996335
0.6532037412996335
0.6532037412996335
0.6532037412996335
0.6532037412996335
0.42383924069295725
0.42383924069295725
0.42383924069295725
0.42383924069295725
0.42383924069295725
0.7166866460417615
0.7166866460417615
0.7166866460417615
0.7166866460417615
0.7166866460417615
0.7696159111464939
0.7696159111464939
0.7696159111464939
0.7696159111464939
0.7696159111464939
0.7623976012789332
0.7623976012789332
0.7623976012789332
0.7623976012789332
0.7623976012789332
0.653204547154847
0.653204547154847
0.653204547154847
0.653204547154847
0.653204547154847
0.42384060636688164
0.42384060636688164
0.42384060636688164
0.42384060636688164
0.42384060636688164
2.7315586167232887e-15
2.7315586167232887e-15
2.7315586167232887e-15
2.7315586167232887e-15
2.7315586167232887e-15
6.413801588630813e-15
6.413801588630813e-15
6.413801588630813e-15
6.413801588630813e-15
6.413801588630813e-15
8.459202560638431e-15
8.459202560638431e-15
8.459202560638431e-15
8.459202560638431e-15
8.459202560638431e-15
7.783513761242342e-15
7.783513761242342e-15
7.783513761242342e-15
7.783513761242342e-15
7.783513761242342e-15
5.22931446322069e-15
5.22931446322069e-15
5.22931446322069e-15
5.22931446322069e-15
5.22931446322069e-15
SCALARS cd float 1
LOOKUP_TABLE default
0.04748360499580483
0.04748360499580483
0.04748360499580483
0.04748360499580483
0.04748360499580483
0.0372919851219134
0.0372919851219134
0.0372919851219134
0.0372919851219134
0.0372919851219134
0.03006575189482233
0.03006575189482233
0.03006575189482233
0.03006575189482233
0.03006575189482233
0.0296454535693962
0.0296454535693962
0.0296454535693962
0.0296454535693962
0.0296454535693962
0.03537373329426523
0.03537373329426523
0.03537373329426523
0.03537373329426523
0.03537373329426523
0.04748361167004784
0.04748361167004784
0.04748361167004784
0.04748361167004784
0.04748361167004784
0.03729197506709052
0.03729197506709052
0.03729197506709052
0.03729197506709052
0.03729197506709052
0.030065750382238274
0.030065750382238274
0.030065750382238274
0.030065750382238274
0.030065750382238274
0.02964545684377658
0.02964545684377658
0.02964545684377658
0.02964545684377658
0.02964545684377658
0.03537371007342784
0.03537371007342784
0.03537371007342784
0.03537371007342784
0.03537371007342784
0.018841971034690007
0.018841971034690007
0.018841971034690007
0.018841971034690007
0.018841971034690007
0.019325571012174303
0.019325571012174303
0.019325571012174303
0.019325571012174303
0.019325571012174303
0.0188779823916297
0.0188779823916297
0.0188779823916297
0.0188779823916297
0.0188779823916297
0.016861052491231092
0.016861052491231092
0.016861052491231092
0.016861052491231092
0.016861052491231092
0.01251735232115066
0.01251735232115066
0.01251735232115066
0.01251735232115066
0.01251735232115066
0.018841972175047367
0.018841972175047367
0.018841972175047367
0.018841972175047367
0.018841972175047367
0.019325573683191412
0.019325573683191412
0.019325573683191412
0.019325573683191412
0.019325573683191412
0.01887798921899085
0.01887798921899085
0.01887798921899085
0.01887798921899085
0.01887798921899085
0.016861063990928064
0.016861063990928064
0.016861063990928064
0.016861063990928064
0.016861063990928064
0.012517383352096624
0.012517383352096624
0.012517383352096624
0.012517383352096624
0.012517383352096624
-5.34448173112379e-16
-5.34448173112379e-16
-5.34448173112379e-16
-5.34448173112379e-16
-5.34448173112379e-16
-1.1402248057383571e-16
-1.1402248057383571e-16
-1.1402248057383571e-16
-1.1402248057383571e-16
-1.1402248057383571e-16
-8.44362248658665e-17
-8.44362248658665e-17
-8.44362248658665e-17
-8.44362248658665e-17
-8.44362248658665e-17
-7.731080973168461e-17
-7.731080973168461e-17
-7.731080973168461e-17
-7.731080973168461e-17
-7.731080973168461e-17
1.3448144760097454e-17
1.3448144760097454e-17
1.3448144760097454e-17
1.3448144760097454e-17
1.3448144760097454e-17
SCALARS cd_CD float 1
LOOKUP_TABLE default
1.4196001611445648
1.4196001611445648
1.4196001611445648
1.4196001611445648
1.4196001611445648
1.1149049886407358
1.1149049886407358
1.1149049886407358
1.1149049886407358
1.1149049886407358
0.8988649079738821
0.8988649079738821
0.8988649079738821
0.8988649079738821
0.8988649079738821
0.8862994009834917
0.8862994009834917
0.8862994009834917
0.8862994009834917
0.8862994009834917
1.057555707686061
1.057555707686061
1.057555707686061
1.057555707686061
1.057555707686061
1.4196003606819934
1.4196003606819934
1.4196003606819934
1.4196003606819934
1.4196003606819934
1.1149046880353335
1.1149046880353335
1.1149046880353335
1.1149046880353335
1.1149046880353335
0.8988648627527038
0.8988648627527038
0.8988648627527038
0.8988648627527038
0.8988648627527038
0.8862994988764574
0.8862994988764574
0.8862994988764574
0.8862994988764574
0.8862994988764574
1.057555013461086
1.057555013461086
1.057555013461086
1.057555013461086
1.057555013461086
0.5633115918534479
0.5633115918534479
0.5633115918534479
0.5633115918534479
0.5633115918534479
0.5777696054357543
0.5777696054357543
0.5777696054357543
0.5777696054357543
0.5777696054357543
0.564388210364598
0.564388210364598
0.564388210364598
0.564388210364598
0.564388210364598
0.5040887867661555
0.5040887867661555
0.5040887867661555
0.5040887867661555
0.5040887867661555
0.3742267541350054
0.3742267541350054
0.3742267541350054
0.3742267541350054
0.3742267541350054
0.5633116259462995
0.5633116259462995
0.5633116259462995
0.5633116259462995
0.5633116259462995
0.5777696852901866
0.5777696852901866
0.5777696852901866
0.5777696852901866
0.5777696852901866
0.5643884144797445
0.5643884144797445
0.5643884144797445
0.5643884144797445
0.5643884144797445
0.5040891305684359
0.5040891305684359
0.5040891305684359
0.5040891305684359
0.5040891305684359
0.3742276818559713
0.3742276818559713
0.3742276818559713
0.3742276818559713
0.3742276818559713
-1.597820369242779e-14
-1.597820369242779e-14
-1.597820369242779e-14
-1.597820369242779e-14
-1.597820369242779e-14
-3.4088888535531588e-15
-3.4088888535531588e-15
-3.4088888535531588e-15
-3.4088888535531588e-15
-3.4088888535531588e-15
-2.5243592696176478e-15
-2.5243592696176478e-15
-2.5243592696176478e-15
-2.5243592696176478e-15
-2.5243592696176478e-15
-2.3113333110030858e-15
-2.3113333110030858e-15
-2.3113333110030858e-15
-2.3113333110030858e-15
-2.3113333110030858e-15
4.020543189637026e-16
4.020543189637026e-16
4.020543189637026e-16
4.020543189637026e-16
4.020543189637026e-16