# vtk DataFile Version 4.0
SUAVE Model of PROWIM Wing 
ASCII
DATASET UNSTRUCTURED_GRID

POINTS 156 float
6.75 0.0 0.623
7.0853 0.0 0.623
7.4206 0.0 0.623
7.7558 0.0 0.623
8.0911 0.0 0.623
8.4264 0.0 0.623
6.7945 0.0 0.6972
7.1218 0.0 0.6972
7.4492 0.0 0.6972
7.7766 0.0 0.6972
8.1039 0.0 0.6972
8.4313 0.0 0.6972
6.839 0.0 0.7713
7.1584 0.0 0.7713
7.4778 0.0 0.7713
7.7973 0.0 0.7713
8.1167 0.0 0.7713
8.4361 0.0 0.7713
6.8835 0.0 0.8455
7.195 0.0 0.8455
7.5065 0.0 0.8455
7.818 0.0 0.8455
8.1295 0.0 0.8455
8.441 0.0 0.8455
6.9279 0.0 0.9196
7.2315 0.0 0.9196
7.5351 0.0 0.9196
7.8387 0.0 0.9196
8.1423 0.0 0.9196
8.4459 0.0 0.9196
6.9724 0.0 0.9938
7.2681 0.0 0.9938
7.5637 0.0 0.9938
7.8594 0.0 0.9938
8.1551 0.0 0.9938
8.4507 0.0 0.9938
7.0169 0.0 1.068
7.3047 0.0 1.068
7.5924 0.0 1.068
7.8801 0.0 1.068
8.1678 0.0 1.068
8.4556 0.0 1.068
7.0614 0.0 1.1421
7.3412 0.0 1.1421
7.621 0.0 1.1421
7.9008 0.0 1.1421
8.1806 0.0 1.1421
8.4604 0.0 1.1421
7.1059 0.0 1.2163
7.3778 0.0 1.2163
7.6497 0.0 1.2163
7.9215 0.0 1.2163
8.1934 0.0 1.2163
8.4653 0.0 1.2163
7.1504 0.0 1.2904
7.4143 0.0 1.2904
7.6783 0.0 1.2904
7.9423 0.0 1.2904
8.2062 0.0 1.2904
8.4702 0.0 1.2904
7.1949 0.0 1.3646
7.4509 0.0 1.3646
7.7069 0.0 1.3646
7.963 0.0 1.3646
8.219 0.0 1.3646
8.475 0.0 1.3646
7.2394 0.0 1.4388
7.4875 0.0 1.4388
7.7356 0.0 1.4388
7.9837 0.0 1.4388
8.2318 0.0 1.4388
8.4799 0.0 1.4388
7.2838 0.0 1.5129
7.524 0.0 1.5129
7.7642 0.0 1.5129
8.0044 0.0 1.5129
8.2446 0.0 1.5129
8.4848 0.0 1.5129
7.3283 0.0 1.5871
7.5606 0.0 1.5871
7.7929 0.0 1.5871
8.0251 0.0 1.5871
8.2574 0.0 1.5871
8.4896 0.0 1.5871
7.3728 0.0 1.6612
7.5972 0.0 1.6612
7.8215 0.0 1.6612
8.0458 0.0 1.6612
8.2702 0.0 1.6612
8.4945 0.0 1.6612
7.4173 0.0 1.7354
7.6337 0.0 1.7354
7.8501 0.0 1.7354
8.0665 0.0 1.7354
8.2829 0.0 1.7354
8.4994 0.0 1.7354
7.4618 0.0 1.8096
7.6703 0.0 1.8096
7.8788 0.0 1.8096
8.0872 0.0 1.8096
8.2957 0.0 1.8096
8.5042 0.0 1.8096
7.5063 0.0 1.8837
7.7068 0.0 1.8837
7.9074 0.0 1.8837
8.108 0.0 1.8837
8.3085 0.0 1.8837
8.5091 0.0 1.8837
7.5508 0.0 1.9579
7.7434 0.0 1.9579
7.936 0.0 1.9579
8.1287 0.0 1.9579
8.3213 0.0 1.9579
8.5139 0.0 1.9579
7.5953 0.0 2.032
7.78 0.0 2.032
7.9647 0.0 2.032
8.1494 0.0 2.032
8.3341 0.0 2.032
8.5188 0.0 2.032
7.6397 0.0 2.1062
7.8165 0.0 2.1062
7.9933 0.0 2.1062
8.1701 0.0 2.1062
8.3469 0.0 2.1062
8.5237 0.0 2.1062
7.6842 0.0 2.1804
7.8531 0.0 2.1804
8.022 0.0 2.1804
8.1908 0.0 2.1804
8.3597 0.0 2.1804
8.5285 0.0 2.1804
7.7287 0.0 2.2545
7.8897 0.0 2.2545
8.0506 0.0 2.2545
8.2115 0.0 2.2545
8.3725 0.0 2.2545
8.5334 0.0 2.2545
7.7732 0.0 2.3287
7.9262 0.0 2.3287
8.0792 0.0 2.3287
8.2322 0.0 2.3287
8.3852 0.0 2.3287
8.5383 0.0 2.3287
7.8177 0.0 2.4028
7.9628 0.0 2.4028
8.1079 0.0 2.4028
8.253 0.0 2.4028
8.398 0.0 2.4028
8.5431 0.0 2.4028
7.8622 0.0 2.477
7.9993 0.0 2.477
8.1365 0.0 2.477
8.2737 0.0 2.477
8.4108 0.0 2.477
8.548 0.0 2.477

CELLS 125 625
4 0 1 7 6
4 1 2 8 7
4 2 3 9 8
4 3 4 10 9
4 4 5 11 10
4 6 7 13 12
4 7 8 14 13
4 8 9 15 14
4 9 10 16 15
4 10 11 17 16
4 12 13 19 18
4 13 14 20 19
4 14 15 21 20
4 15 16 22 21
4 16 17 23 22
4 18 19 25 24
4 19 20 26 25
4 20 21 27 26
4 21 22 28 27
4 22 23 29 28
4 24 25 31 30
4 25 26 32 31
4 26 27 33 32
4 27 28 34 33
4 28 29 35 34
4 30 31 37 36
4 31 32 38 37
4 32 33 39 38
4 33 34 40 39
4 34 35 41 40
4 36 37 43 42
4 37 38 44 43
4 38 39 45 44
4 39 40 46 45
4 40 41 47 46
4 42 43 49 48
4 43 44 50 49
4 44 45 51 50
4 45 46 52 51
4 46 47 53 52
4 48 49 55 54
4 49 50 56 55
4 50 51 57 56
4 51 52 58 57
4 52 53 59 58
4 54 55 61 60
4 55 56 62 61
4 56 57 63 62
4 57 58 64 63
4 58 59 65 64
4 60 61 67 66
4 61 62 68 67
4 62 63 69 68
4 63 64 70 69
4 64 65 71 70
4 66 67 73 72
4 67 68 74 73
4 68 69 75 74
4 69 70 76 75
4 70 71 77 76
4 72 73 79 78
4 73 74 80 79
4 74 75 81 80
4 75 76 82 81
4 76 77 83 82
4 78 79 85 84
4 79 80 86 85
4 80 81 87 86
4 81 82 88 87
4 82 83 89 88
4 84 85 91 90
4 85 86 92 91
4 86 87 93 92
4 87 88 94 93
4 88 89 95 94
4 90 91 97 96
4 91 92 98 97
4 92 93 99 98
4 93 94 100 99
4 94 95 101 100
4 96 97 103 102
4 97 98 104 103
4 98 99 105 104
4 99 100 106 105
4 100 101 107 106
4 102 103 109 108
4 103 104 110 109
4 104 105 111 110
4 105 106 112 111
4 106 107 113 112
4 108 109 115 114
4 109 110 116 115
4 110 111 117 116
4 111 112 118 117
4 112 113 119 118
4 114 115 121 120
4 115 116 122 121
4 116 117 123 122
4 117 118 124 123
4 118 119 125 124
4 120 121 127 126
4 121 122 128 127
4 122 123 129 128
4 123 124 130 129
4 124 125 131 130
4 126 127 133 132
4 127 128 134 133
4 128 129 135 134
4 129 130 136 135
4 130 131 137 136
4 132 133 139 138
4 133 134 140 139
4 134 135 141 140
4 135 136 142 141
4 136 137 143 142
4 138 139 145 144
4 139 140 146 145
4 140 141 147 146
4 141 142 148 147
4 142 143 149 148
4 144 145 151 150
4 145 146 152 151
4 146 147 153 152
4 147 148 154 153
4 148 149 155 154

CELL_TYPES 125
9
9
9
9
9
9
9
9
9
9
9
9
9
9
9
9
9
9
9
9
9
9
9
9
9
9
9
9
9
9
9
9
9
9
9
9
9
9
9
9
9
9
9
9
9
9
9
9
9
9
9
9
9
9
9
9
9
9
9
9
9
9
9
9
9
9
9
9
9
9
9
9
9
9
9
9
9
9
9
9
9
9
9
9
9
9
9
9
9
9
9
9
9
9
9
9
9
9
9
9
9
9
9
9
9
9
9
9
9
9
9
9
9
9
9
9
9
9
9
9
9
9
9
9
9

CELL_DATA 125
SCALARS i float 1
LOOKUP_TABLE default
0
1
2
3
4
5
6
7
8
9
10
11
12
13
14
15
16
17
18
19
20
21
22
23
24
25
26
27
28
29
30
31
32
33
34
35
36
37
38
39
40
41
42
43
44
45
46
47
48
49
50
51
52
53
54
55
56
57
58
59
60
61
62
63
64
65
66
67
68
69
70
71
72
73
74
75
76
77
78
79
80
81
82
83
84
85
86
87
88
89
90
91
92
93
94
95
96
97
98
99
100
101
102
103
104
105
106
107
108
109
110
111
112
113
114
115
116
117
118
119
120
121
122
123
124
SCALARS cl float 1
LOOKUP_TABLE default
0.8235389566540384
0.8235389566540384
0.8235389566540384
0.8235389566540384
0.8235389566540384
0.7688903933069132
0.7688903933069132
0.7688903933069132
0.7688903933069132
0.7688903933069132
0.6976306831043689
0.6976306831043689
0.6976306831043689
0.6976306831043689
0.6976306831043689
0.6591940152820941
0.6591940152820941
0.6591940152820941
0.6591940152820941
0.6591940152820941
0.5140871672592916
0.5140871672592916
0.5140871672592916
0.5140871672592916
0.5140871672592916
0.8235389596224958
0.8235389596224958
0.8235389596224958
0.8235389596224958
0.8235389596224958
0.7688905918015485
0.7688905918015485
0.7688905918015485
0.7688905918015485
0.7688905918015485
0.6976308572914172
0.6976308572914172
0.6976308572914172
0.6976308572914172
0.6976308572914172
0.6591938623477043
0.6591938623477043
0.6591938623477043
0.6591938623477043
0.6591938623477043
0.5140857599834067
0.5140857599834067
0.5140857599834067
0.5140857599834067
0.5140857599834067
0.26083159506273673
0.26083159506273673
0.26083159506273673
0.26083159506273673
0.26083159506273673
0.2800946714204937
0.2800946714204937
0.2800946714204937
0.2800946714204937
0.2800946714204937
0.27746755113200183
0.27746755113200183
0.27746755113200183
0.27746755113200183
0.27746755113200183
0.23772757663388133
0.23772757663388133
0.23772757663388133
0.23772757663388133
0.23772757663388133
0.1542524471335841
0.1542524471335841
0.1542524471335841
0.1542524471335841
0.1542524471335841
0.2608316039806918
0.2608316039806918
0.2608316039806918
0.2608316039806918
0.2608316039806918
0.28009472991032175
0.28009472991032175
0.28009472991032175
0.28009472991032175
0.28009472991032175
0.2774676915091126
0.2774676915091126
0.2774676915091126
0.2774676915091126
0.2774676915091126
0.2377278699175766
0.2377278699175766
0.2377278699175766
0.2377278699175766
0.2377278699175766
0.15425294415822127
0.15425294415822127
0.15425294415822127
0.15425294415822127
0.15425294415822127
9.941259814204754e-16
9.941259814204754e-16
9.941259814204754e-16
9.941259814204754e-16
9.941259814204754e-16
2.3342449105421203e-15
2.3342449105421203e-15
2.3342449105421203e-15
2.3342449105421203e-15
2.3342449105421203e-15
3.078650041095265e-15
3.078650041095265e-15
3.078650041095265e-15
3.078650041095265e-15
3.078650041095265e-15
2.8327392315222902e-15
2.8327392315222902e-15
2.8327392315222902e-15
2.8327392315222902e-15
2.8327392315222902e-15
1.903161565370933e-15
1.903161565370933e-15
1.903161565370933e-15
1.903161565370933e-15
1.903161565370933e-15
SCALARS Cl/CL float 1
LOOKUP_TABLE default
2.2628368791260653
2.2628368791260653
2.2628368791260653
2.2628368791260653
2.2628368791260653
2.112679095412282
2.112679095412282
2.112679095412282
2.112679095412282
2.112679095412282
1.9168788859148551
1.9168788859148551
1.9168788859148551
1.9168788859148551
1.9168788859148551
1.811266505642844
1.811266505642844
1.811266505642844
1.811266505642844
1.811266505642844
1.4125566152767506
1.4125566152767506
1.4125566152767506
1.4125566152767506
1.4125566152767506
2.262836887282492
2.262836887282492
2.262836887282492
2.262836887282492
2.262836887282492
2.1126796408157236
2.1126796408157236
2.1126796408157236
2.1126796408157236
2.1126796408157236
1.9168793645283724
1.9168793645283724
1.9168793645283724
1.9168793645283724
1.9168793645283724
1.8112660854252276
1.8112660854252276
1.8112660854252276
1.8112660854252276
1.8112660854252276
1.4125527485067018
1.4125527485067018
1.4125527485067018
1.4125527485067018
1.4125527485067018
0.7166866215379085
0.7166866215379085
0.7166866215379085
0.7166866215379085
0.7166866215379085
0.7696157504340724
0.7696157504340724
0.7696157504340724
0.7696157504340724
0.7696157504340724
0.7623972155649356
0.7623972155649356
0.7623972155649356
0.7623972155649356
0.7623972155649356
0.6532037412996335
0.6532037412996335
0.6532037412996335
0.6532037412996335
0.6532037412996335
0.42383924069295725
0.42383924069295725
0.42383924069295725
0.42383924069295725
0.42383924069295725
0.7166866460417615
0.7166866460417615
0.7166866460417615
0.7166866460417615
0.7166866460417615
0.7696159111464939
0.7696159111464939
0.7696159111464939
0.7696159111464939
0.7696159111464939
0.7623976012789332
0.7623976012789332
0.7623976012789332
0.7623976012789332
0.7623976012789332
0.653204547154847
0.653204547154847
0.653204547154847
0.653204547154847
0.653204547154847
0.42384060636688164
0.42384060636688164
0.42384060636688164
0.42384060636688164
0.42384060636688164
2.7315586167232887e-15
2.7315586167232887e-15
2.7315586167232887e-15
2.7315586167232887e-15
2.7315586167232887e-15
6.413801588630813e-15
6.413801588630813e-15
6.413801588630813e-15
6.413801588630813e-15
6.413801588630813e-15
8.459202560638431e-15
8.459202560638431e-15
8.459202560638431e-15
8.459202560638431e-15
8.459202560638431e-15
7.783513761242342e-15
7.783513761242342e-15
7.783513761242342e-15
7.783513761242342e-15
7.783513761242342e-15
5.22931446322069e-15
5.22931446322069e-15
5.22931446322069e-15
5.22931446322069e-15
5.22931446322069e-15
SCALARS cd float 1
LOOKUP_TABLE default
0.04748360499580483
0.04748360499580483
0.04748360499580483
0.04748360499580483
0.04748360499580483
0.0372919851219134
0.0372919851219134
0.0372919851219134
0.0372919851219134
0.0372919851219134
0.03006575189482233
0.03006575189482233
0.03006575189482233
0.03006575189482233
0.03006575189482233
0.0296454535693962
0.0296454535693962
0.0296454535693962
0.0296454535693962
0.0296454535693962
0.03537373329426523
0.03537373329426523
0.03537373329426523
0.03537373329426523
0.03537373329426523
0.04748361167004784
0.04748361167004784
0.04748361167004784
0.04748361167004784
0.04748361167004784
0.03729197506709052
0.03729197506709052
0.03729197506709052
0.03729197506709052
0.03729197506709052
0.030065750382238274
0.030065750382238274
0.030065750382238274
0.030065750382238274
0.030065750382238274
0.02964545684377658
0.02964545684377658
0.02964545684377658
0.02964545684377658
0.02964545684377658
0.03537371007342784
0.03537371007342784
0.03537371007342784
0.03537371007342784
0.03537371007342784
0.018841971034690007
0.018841971034690007
0.018841971034690007
0.018841971034690007
0.018841971034690007
0.019325571012174303
0.019325571012174303
0.019325571012174303
0.019325571012174303
0.019325571012174303
0.0188779823916297
0.0188779823916297
0.0188779823916297
0.0188779823916297
0.0188779823916297
0.016861052491231092
0.016861052491231092
0.016861052491231092
0.016861052491231092
0.016861052491231092
0.01251735232115066
0.01251735232115066
0.01251735232115066
0.01251735232115066
0.01251735232115066
0.018841972175047367
0.018841972175047367
0.018841972175047367
0.018841972175047367
0.018841972175047367
0.019325573683191412
0.019325573683191412
0.019325573683191412
0.019325573683191412
0.019325573683191412
0.01887798921899085
0.01887798921899085
0.01887798921899085
0.01887798921899085
0.01887798921899085
0.016861063990928064
0.016861063990928064
0.016861063990928064
0.016861063990928064
0.016861063990928064
0.012517383352096624
0.012517383352096624
0.012517383352096624
0.012517383352096624
0.012517383352096624
-5.34448173112379e-16
-5.34448173112379e-16
-5.34448173112379e-16
-5.34448173112379e-16
-5.34448173112379e-16
-1.1402248057383571e-16
-1.1402248057383571e-16
-1.1402248057383571e-16
-1.1402248057383571e-16
-1.1402248057383571e-16
-8.44362248658665e-17
-8.44362248658665e-17
-8.44362248658665e-17
-8.44362248658665e-17
-8.44362248658665e-17
-7.731080973168461e-17
-7.731080973168461e-17
-7.731080973168461e-17
-7.731080973168461e-17
-7.731080973168461e-17
1.3448144760097454e-17
1.3448144760097454e-17
1.3448144760097454e-17
1.3448144760097454e-17
1.3448144760097454e-17
SCALARS cd_CD float 1
LOOKUP_TABLE default
1.4196001611445648
1.4196001611445648
1.4196001611445648
1.4196001611445648
1.4196001611445648
1.1149049886407358
1.1149049886407358
1.1149049886407358
1.1149049886407358
1.1149049886407358
0.8988649079738821
0.8988649079738821
0.8988649079738821
0.8988649079738821
0.8988649079738821
0.8862994009834917
0.8862994009834917
0.8862994009834917
0.8862994009834917
0.8862994009834917
1.057555707686061
1.057555707686061
1.057555707686061
1.057555707686061
1.057555707686061
1.4196003606819934
1.4196003606819934
1.4196003606819934
1.4196003606819934
1.4196003606819934
1.1149046880353335
1.1149046880353335
1.1149046880353335
1.1149046880353335
1.1149046880353335
0.8988648627527038
0.8988648627527038
0.8988648627527038
0.8988648627527038
0.8988648627527038
0.8862994988764574
0.8862994988764574
0.8862994988764574
0.8862994988764574
0.8862994988764574
1.057555013461086
1.057555013461086
1.057555013461086
1.057555013461086
1.057555013461086
0.5633115918534479
0.5633115918534479
0.5633115918534479
0.5633115918534479
0.5633115918534479
0.5777696054357543
0.5777696054357543
0.5777696054357543
0.5777696054357543
0.5777696054357543
0.564388210364598
0.564388210364598
0.564388210364598
0.564388210364598
0.564388210364598
0.5040887867661555
0.5040887867661555
0.5040887867661555
0.5040887867661555
0.5040887867661555
0.3742267541350054
0.3742267541350054
0.3742267541350054
0.3742267541350054
0.3742267541350054
0.5633116259462995
0.5633116259462995
0.5633116259462995
0.5633116259462995
0.5633116259462995
0.5777696852901866
0.5777696852901866
0.5777696852901866
0.5777696852901866
0.5777696852901866
0.5643884144797445
0.5643884144797445
0.5643884144797445
0.5643884144797445
0.5643884144797445
0.5040891305684359
0.5040891305684359
0.5040891305684359
0.5040891305684359
0.5040891305684359
0.3742276818559713
0.3742276818559713
0.3742276818559713
0.3742276818559713
0.3742276818559713
-1.597820369242779e-14
-1.597820369242779e-14
-1.597820369242779e-14
-1.597820369242779e-14
-1.597820369242779e-14
-3.4088888535531588e-15
-3.4088888535531588e-15
-3.4088888535531588e-15
-3.4088888535531588e-15
-3.4088888535531588e-15
-2.5243592696176478e-15
-2.5243592696176478e-15
-2.5243592696176478e-15
-2.5243592696176478e-15
-2.5243592696176478e-15
-2.3113333110030858e-15
-2.3113333110030858e-15
-2.3113333110030858e-15
-2.3113333110030858e-15
-2.3113333110030858e-15
4.020543189637026e-16
4.020543189637026e-16
4.020543189637026e-16
4.020543189637026e-16
4.020543189637026e-16