# vtk DataFile Version 4.0
SUAVE Model of PROWIM Wing 
ASCII
DATASET UNSTRUCTURED_GRID

POINTS 156 float
2.93 -0.0 1.01
3.081 -0.0 1.0021
3.2319 -0.0 0.9942
3.3829 -0.0 0.9863
3.5339 -0.0 0.9784
3.5339 -0.0 0.9784
2.93 -0.1926 1.01
3.0792 -0.1926 1.0025
3.2284 -0.1926 0.995
3.3776 -0.1926 0.9875
3.5268 -0.1926 0.98
3.5268 -0.1926 0.98
2.93 -0.3853 1.01
3.0774 -0.3853 1.0029
3.2248 -0.3853 0.9958
3.3722 -0.3853 0.9887
3.5196 -0.3853 0.9816
3.5196 -0.3853 0.9816
2.93 -0.5779 1.01
3.0756 -0.5779 1.0033
3.2212 -0.5779 0.9966
3.3668 -0.5779 0.9899
3.5125 -0.5779 0.9831
3.5125 -0.5779 0.9831
2.93 -0.7705 1.01
3.0738 -0.7705 1.0037
3.2176 -0.7705 0.9973
3.3615 -0.7705 0.991
3.5053 -0.7705 0.9847
3.5053 -0.7705 0.9847
2.93 -0.9632 1.01
3.072 -0.9632 1.004
3.2141 -0.9632 0.9981
3.3561 -0.9632 0.9921
3.4981 -0.9632 0.9862
3.4981 -0.9632 0.9862
2.93 -1.1558 1.01
3.0702 -1.1558 1.0044
3.2105 -1.1558 0.9988
3.3507 -1.1558 0.9932
3.491 -1.1558 0.9877
3.491 -1.1558 0.9877
2.93 -1.3484 1.01
3.0685 -1.3484 1.0048
3.2069 -1.3484 0.9996
3.3454 -1.3484 0.9943
3.4838 -1.3484 0.9891
3.4838 -1.3484 0.9891
2.93 -1.5411 1.01
3.0667 -1.5411 1.0051
3.2033 -1.5411 1.0003
3.34 -1.5411 0.9954
3.4766 -1.5411 0.9905
3.4766 -1.5411 0.9905
2.93 -1.7337 1.01
3.0649 -1.7337 1.0055
3.1997 -1.7337 1.001
3.3346 -1.7337 0.9964
3.4695 -1.7337 0.9919
3.4695 -1.7337 0.9919
2.93 -1.9263 1.01
3.0631 -1.9263 1.0058
3.1961 -1.9263 1.0016
3.3292 -1.9263 0.9975
3.4623 -1.9263 0.9933
3.4623 -1.9263 0.9933
2.93 -2.119 1.01
3.0613 -2.119 1.0061
3.1926 -2.119 1.0023
3.3238 -2.119 0.9984
3.4551 -2.119 0.9946
3.4551 -2.119 0.9946
2.93 -2.3116 1.01
3.0595 -2.3116 1.0065
3.189 -2.3116 1.0029
3.3184 -2.3116 0.9994
3.4479 -2.3116 0.9959
3.4479 -2.3116 0.9959
2.93 -2.5042 1.01
3.0577 -2.5042 1.0068
3.1854 -2.5042 1.0036
3.313 -2.5042 1.0004
3.4407 -2.5042 0.9972
3.4407 -2.5042 0.9972
2.93 -2.6969 1.01
3.0559 -2.6969 1.0071
3.1818 -2.6969 1.0042
3.3077 -2.6969 1.0013
3.4335 -2.6969 0.9984
3.4335 -2.6969 0.9984
2.93 -2.8895 1.01
3.0541 -2.8895 1.0074
3.1782 -2.8895 1.0048
3.3023 -2.8895 1.0022
3.4263 -2.8895 0.9996
3.4263 -2.8895 0.9996
2.93 -3.0821 1.01
3.0523 -3.0821 1.0077
3.1746 -3.0821 1.0054
3.2969 -3.0821 1.0031
3.4192 -3.0821 1.0008
3.4192 -3.0821 1.0008
2.93 -3.2748 1.01
3.0505 -3.2748 1.008
3.171 -3.2748 1.006
3.2915 -3.2748 1.0039
3.412 -3.2748 1.0019
3.412 -3.2748 1.0019
2.93 -3.4674 1.01
3.0487 -3.4674 1.0083
3.1674 -3.4674 1.0065
3.2861 -3.4674 1.0048
3.4048 -3.4674 1.003
3.4048 -3.4674 1.003
2.93 -3.66 1.01
3.0469 -3.66 1.0085
3.1638 -3.66 1.0071
3.2807 -3.66 1.0056
3.3976 -3.66 1.0041
3.3976 -3.66 1.0041
2.93 -3.8527 1.01
3.0451 -3.8527 1.0088
3.1602 -3.8527 1.0076
3.2753 -3.8527 1.0064
3.3903 -3.8527 1.0052
3.3903 -3.8527 1.0052
2.93 -4.0453 1.01
3.0433 -4.0453 1.0091
3.1566 -4.0453 1.0081
3.2699 -4.0453 1.0072
3.3831 -4.0453 1.0062
3.3831 -4.0453 1.0062
2.93 -4.2379 1.01
3.0415 -4.2379 1.0093
3.153 -4.2379 1.0086
3.2644 -4.2379 1.0079
3.3759 -4.2379 1.0072
3.3759 -4.2379 1.0072
2.93 -4.4306 1.01
3.0397 -4.4306 1.0095
3.1494 -4.4306 1.0091
3.259 -4.4306 1.0086
3.3687 -4.4306 1.0082
3.3687 -4.4306 1.0082
2.93 -4.6232 1.01
3.0379 -4.6232 1.0098
3.1457 -4.6232 1.0095
3.2536 -4.6232 1.0093
3.3615 -4.6232 1.0091
3.3615 -4.6232 1.0091
2.93 -4.8158 1.01
3.0361 -4.8158 1.01
3.1421 -4.8158 1.01
3.2482 -4.8158 1.01
3.3543 -4.8158 1.01
3.3543 -4.8158 1.01

CELLS 125 625
4 0 1 7 6
4 1 2 8 7
4 2 3 9 8
4 3 4 10 9
4 4 5 11 10
4 6 7 13 12
4 7 8 14 13
4 8 9 15 14
4 9 10 16 15
4 10 11 17 16
4 12 13 19 18
4 13 14 20 19
4 14 15 21 20
4 15 16 22 21
4 16 17 23 22
4 18 19 25 24
4 19 20 26 25
4 20 21 27 26
4 21 22 28 27
4 22 23 29 28
4 24 25 31 30
4 25 26 32 31
4 26 27 33 32
4 27 28 34 33
4 28 29 35 34
4 30 31 37 36
4 31 32 38 37
4 32 33 39 38
4 33 34 40 39
4 34 35 41 40
4 36 37 43 42
4 37 38 44 43
4 38 39 45 44
4 39 40 46 45
4 40 41 47 46
4 42 43 49 48
4 43 44 50 49
4 44 45 51 50
4 45 46 52 51
4 46 47 53 52
4 48 49 55 54
4 49 50 56 55
4 50 51 57 56
4 51 52 58 57
4 52 53 59 58
4 54 55 61 60
4 55 56 62 61
4 56 57 63 62
4 57 58 64 63
4 58 59 65 64
4 60 61 67 66
4 61 62 68 67
4 62 63 69 68
4 63 64 70 69
4 64 65 71 70
4 66 67 73 72
4 67 68 74 73
4 68 69 75 74
4 69 70 76 75
4 70 71 77 76
4 72 73 79 78
4 73 74 80 79
4 74 75 81 80
4 75 76 82 81
4 76 77 83 82
4 78 79 85 84
4 79 80 86 85
4 80 81 87 86
4 81 82 88 87
4 82 83 89 88
4 84 85 91 90
4 85 86 92 91
4 86 87 93 92
4 87 88 94 93
4 88 89 95 94
4 90 91 97 96
4 91 92 98 97
4 92 93 99 98
4 93 94 100 99
4 94 95 101 100
4 96 97 103 102
4 97 98 104 103
4 98 99 105 104
4 99 100 106 105
4 100 101 107 106
4 102 103 109 108
4 103 104 110 109
4 104 105 111 110
4 105 106 112 111
4 106 107 113 112
4 108 109 115 114
4 109 110 116 115
4 110 111 117 116
4 111 112 118 117
4 112 113 119 118
4 114 115 121 120
4 115 116 122 121
4 116 117 123 122
4 117 118 124 123
4 118 119 125 124
4 120 121 127 126
4 121 122 128 127
4 122 123 129 128
4 123 124 130 129
4 124 125 131 130
4 126 127 133 132
4 127 128 134 133
4 128 129 135 134
4 129 130 136 135
4 130 131 137 136
4 132 133 139 138
4 133 134 140 139
4 134 135 141 140
4 135 136 142 141
4 136 137 143 142
4 138 139 145 144
4 139 140 146 145
4 140 141 147 146
4 141 142 148 147
4 142 143 149 148
4 144 145 151 150
4 145 146 152 151
4 146 147 153 152
4 147 148 154 153
4 148 149 155 154

CELL_TYPES 125
9
9
9
9
9
9
9
9
9
9
9
9
9
9
9
9
9
9
9
9
9
9
9
9
9
9
9
9
9
9
9
9
9
9
9
9
9
9
9
9
9
9
9
9
9
9
9
9
9
9
9
9
9
9
9
9
9
9
9
9
9
9
9
9
9
9
9
9
9
9
9
9
9
9
9
9
9
9
9
9
9
9
9
9
9
9
9
9
9
9
9
9
9
9
9
9
9
9
9
9
9
9
9
9
9
9
9
9
9
9
9
9
9
9
9
9
9
9
9
9
9
9
9
9
9

CELL_DATA 125
SCALARS i float 1
LOOKUP_TABLE default
0
1
2
3
4
5
6
7
8
9
10
11
12
13
14
15
16
17
18
19
20
21
22
23
24
25
26
27
28
29
30
31
32
33
34
35
36
37
38
39
40
41
42
43
44
45
46
47
48
49
50
51
52
53
54
55
56
57
58
59
60
61
62
63
64
65
66
67
68
69
70
71
72
73
74
75
76
77
78
79
80
81
82
83
84
85
86
87
88
89
90
91
92
93
94
95
96
97
98
99
100
101
102
103
104
105
106
107
108
109
110
111
112
113
114
115
116
117
118
119
120
121
122
123
124
SCALARS cl float 1
LOOKUP_TABLE default
0.8235389566540384
0.8235389566540384
0.8235389566540384
0.8235389566540384
0.8235389566540384
0.7688903933069132
0.7688903933069132
0.7688903933069132
0.7688903933069132
0.7688903933069132
0.6976306831043689
0.6976306831043689
0.6976306831043689
0.6976306831043689
0.6976306831043689
0.6591940152820941
0.6591940152820941
0.6591940152820941
0.6591940152820941
0.6591940152820941
0.5140871672592916
0.5140871672592916
0.5140871672592916
0.5140871672592916
0.5140871672592916
0.8235389596224958
0.8235389596224958
0.8235389596224958
0.8235389596224958
0.8235389596224958
0.7688905918015485
0.7688905918015485
0.7688905918015485
0.7688905918015485
0.7688905918015485
0.6976308572914172
0.6976308572914172
0.6976308572914172
0.6976308572914172
0.6976308572914172
0.6591938623477043
0.6591938623477043
0.6591938623477043
0.6591938623477043
0.6591938623477043
0.5140857599834067
0.5140857599834067
0.5140857599834067
0.5140857599834067
0.5140857599834067
0.26083159506273673
0.26083159506273673
0.26083159506273673
0.26083159506273673
0.26083159506273673
0.2800946714204937
0.2800946714204937
0.2800946714204937
0.2800946714204937
0.2800946714204937
0.27746755113200183
0.27746755113200183
0.27746755113200183
0.27746755113200183
0.27746755113200183
0.23772757663388133
0.23772757663388133
0.23772757663388133
0.23772757663388133
0.23772757663388133
0.1542524471335841
0.1542524471335841
0.1542524471335841
0.1542524471335841
0.1542524471335841
0.2608316039806918
0.2608316039806918
0.2608316039806918
0.2608316039806918
0.2608316039806918
0.28009472991032175
0.28009472991032175
0.28009472991032175
0.28009472991032175
0.28009472991032175
0.2774676915091126
0.2774676915091126
0.2774676915091126
0.2774676915091126
0.2774676915091126
0.2377278699175766
0.2377278699175766
0.2377278699175766
0.2377278699175766
0.2377278699175766
0.15425294415822127
0.15425294415822127
0.15425294415822127
0.15425294415822127
0.15425294415822127
9.941259814204754e-16
9.941259814204754e-16
9.941259814204754e-16
9.941259814204754e-16
9.941259814204754e-16
2.3342449105421203e-15
2.3342449105421203e-15
2.3342449105421203e-15
2.3342449105421203e-15
2.3342449105421203e-15
3.078650041095265e-15
3.078650041095265e-15
3.078650041095265e-15
3.078650041095265e-15
3.078650041095265e-15
2.8327392315222902e-15
2.8327392315222902e-15
2.8327392315222902e-15
2.8327392315222902e-15
2.8327392315222902e-15
1.903161565370933e-15
1.903161565370933e-15
1.903161565370933e-15
1.903161565370933e-15
1.903161565370933e-15
SCALARS Cl/CL float 1
LOOKUP_TABLE default
2.2628368791260653
2.2628368791260653
2.2628368791260653
2.2628368791260653
2.2628368791260653
2.112679095412282
2.112679095412282
2.112679095412282
2.112679095412282
2.112679095412282
1.9168788859148551
1.9168788859148551
1.9168788859148551
1.9168788859148551
1.9168788859148551
1.811266505642844
1.811266505642844
1.811266505642844
1.811266505642844
1.811266505642844
1.4125566152767506
1.4125566152767506
1.4125566152767506
1.4125566152767506
1.4125566152767506
2.262836887282492
2.262836887282492
2.262836887282492
2.262836887282492
2.262836887282492
2.1126796408157236
2.1126796408157236
2.1126796408157236
2.1126796408157236
2.1126796408157236
1.9168793645283724
1.9168793645283724
1.9168793645283724
1.9168793645283724
1.9168793645283724
1.8112660854252276
1.8112660854252276
1.8112660854252276
1.8112660854252276
1.8112660854252276
1.4125527485067018
1.4125527485067018
1.4125527485067018
1.4125527485067018
1.4125527485067018
0.7166866215379085
0.7166866215379085
0.7166866215379085
0.7166866215379085
0.7166866215379085
0.7696157504340724
0.7696157504340724
0.7696157504340724
0.7696157504340724
0.7696157504340724
0.7623972155649356
0.7623972155649356
0.7623972155649356
0.7623972155649356
0.7623972155649356
0.6532037412996335
0.6532037412996335
0.6532037412996335
0.6532037412996335
0.6532037412996335
0.42383924069295725
0.42383924069295725
0.42383924069295725
0.42383924069295725
0.42383924069295725
0.7166866460417615
0.7166866460417615
0.7166866460417615
0.7166866460417615
0.7166866460417615
0.7696159111464939
0.7696159111464939
0.7696159111464939
0.7696159111464939
0.7696159111464939
0.7623976012789332
0.7623976012789332
0.7623976012789332
0.7623976012789332
0.7623976012789332
0.653204547154847
0.653204547154847
0.653204547154847
0.653204547154847
0.653204547154847
0.42384060636688164
0.42384060636688164
0.42384060636688164
0.42384060636688164
0.42384060636688164
2.7315586167232887e-15
2.7315586167232887e-15
2.7315586167232887e-15
2.7315586167232887e-15
2.7315586167232887e-15
6.413801588630813e-15
6.413801588630813e-15
6.413801588630813e-15
6.413801588630813e-15
6.413801588630813e-15
8.459202560638431e-15
8.459202560638431e-15
8.459202560638431e-15
8.459202560638431e-15
8.459202560638431e-15
7.783513761242342e-15
7.783513761242342e-15
7.783513761242342e-15
7.783513761242342e-15
7.783513761242342e-15
5.22931446322069e-15
5.22931446322069e-15
5.22931446322069e-15
5.22931446322069e-15
5.22931446322069e-15
SCALARS cd float 1
LOOKUP_TABLE default
0.04748360499580483
0.04748360499580483
0.04748360499580483
0.04748360499580483
0.04748360499580483
0.0372919851219134
0.0372919851219134
0.0372919851219134
0.0372919851219134
0.0372919851219134
0.03006575189482233
0.03006575189482233
0.03006575189482233
0.03006575189482233
0.03006575189482233
0.0296454535693962
0.0296454535693962
0.0296454535693962
0.0296454535693962
0.0296454535693962
0.03537373329426523
0.03537373329426523
0.03537373329426523
0.03537373329426523
0.03537373329426523
0.04748361167004784
0.04748361167004784
0.04748361167004784
0.04748361167004784
0.04748361167004784
0.03729197506709052
0.03729197506709052
0.03729197506709052
0.03729197506709052
0.03729197506709052
0.030065750382238274
0.030065750382238274
0.030065750382238274
0.030065750382238274
0.030065750382238274
0.02964545684377658
0.02964545684377658
0.02964545684377658
0.02964545684377658
0.02964545684377658
0.03537371007342784
0.03537371007342784
0.03537371007342784
0.03537371007342784
0.03537371007342784
0.018841971034690007
0.018841971034690007
0.018841971034690007
0.018841971034690007
0.018841971034690007
0.019325571012174303
0.019325571012174303
0.019325571012174303
0.019325571012174303
0.019325571012174303
0.0188779823916297
0.0188779823916297
0.0188779823916297
0.0188779823916297
0.0188779823916297
0.016861052491231092
0.016861052491231092
0.016861052491231092
0.016861052491231092
0.016861052491231092
0.01251735232115066
0.01251735232115066
0.01251735232115066
0.01251735232115066
0.01251735232115066
0.018841972175047367
0.018841972175047367
0.018841972175047367
0.018841972175047367
0.018841972175047367
0.019325573683191412
0.019325573683191412
0.019325573683191412
0.019325573683191412
0.019325573683191412
0.01887798921899085
0.01887798921899085
0.01887798921899085
0.01887798921899085
0.01887798921899085
0.016861063990928064
0.016861063990928064
0.016861063990928064
0.016861063990928064
0.016861063990928064
0.012517383352096624
0.012517383352096624
0.012517383352096624
0.012517383352096624
0.012517383352096624
-5.34448173112379e-16
-5.34448173112379e-16
-5.34448173112379e-16
-5.34448173112379e-16
-5.34448173112379e-16
-1.1402248057383571e-16
-1.1402248057383571e-16
-1.1402248057383571e-16
-1.1402248057383571e-16
-1.1402248057383571e-16
-8.44362248658665e-17
-8.44362248658665e-17
-8.44362248658665e-17
-8.44362248658665e-17
-8.44362248658665e-17
-7.731080973168461e-17
-7.731080973168461e-17
-7.731080973168461e-17
-7.731080973168461e-17
-7.731080973168461e-17
1.3448144760097454e-17
1.3448144760097454e-17
1.3448144760097454e-17
1.3448144760097454e-17
1.3448144760097454e-17
SCALARS cd_CD float 1
LOOKUP_TABLE default
1.4196001611445648
1.4196001611445648
1.4196001611445648
1.4196001611445648
1.4196001611445648
1.1149049886407358
1.1149049886407358
1.1149049886407358
1.1149049886407358
1.1149049886407358
0.8988649079738821
0.8988649079738821
0.8988649079738821
0.8988649079738821
0.8988649079738821
0.8862994009834917
0.8862994009834917
0.8862994009834917
0.8862994009834917
0.8862994009834917
1.057555707686061
1.057555707686061
1.057555707686061
1.057555707686061
1.057555707686061
1.4196003606819934
1.4196003606819934
1.4196003606819934
1.4196003606819934
1.4196003606819934
1.1149046880353335
1.1149046880353335
1.1149046880353335
1.1149046880353335
1.1149046880353335
0.8988648627527038
0.8988648627527038
0.8988648627527038
0.8988648627527038
0.8988648627527038
0.8862994988764574
0.8862994988764574
0.8862994988764574
0.8862994988764574
0.8862994988764574
1.057555013461086
1.057555013461086
1.057555013461086
1.057555013461086
1.057555013461086
0.5633115918534479
0.5633115918534479
0.5633115918534479
0.5633115918534479
0.5633115918534479
0.5777696054357543
0.5777696054357543
0.5777696054357543
0.5777696054357543
0.5777696054357543
0.564388210364598
0.564388210364598
0.564388210364598
0.564388210364598
0.564388210364598
0.5040887867661555
0.5040887867661555
0.5040887867661555
0.5040887867661555
0.5040887867661555
0.3742267541350054
0.3742267541350054
0.3742267541350054
0.3742267541350054
0.3742267541350054
0.5633116259462995
0.5633116259462995
0.5633116259462995
0.5633116259462995
0.5633116259462995
0.5777696852901866
0.5777696852901866
0.5777696852901866
0.5777696852901866
0.5777696852901866
0.5643884144797445
0.5643884144797445
0.5643884144797445
0.5643884144797445
0.5643884144797445
0.5040891305684359
0.5040891305684359
0.5040891305684359
0.5040891305684359
0.5040891305684359
0.3742276818559713
0.3742276818559713
0.3742276818559713
0.3742276818559713
0.3742276818559713
-1.597820369242779e-14
-1.597820369242779e-14
-1.597820369242779e-14
-1.597820369242779e-14
-1.597820369242779e-14
-3.4088888535531588e-15
-3.4088888535531588e-15
-3.4088888535531588e-15
-3.4088888535531588e-15
-3.4088888535531588e-15
-2.5243592696176478e-15
-2.5243592696176478e-15
-2.5243592696176478e-15
-2.5243592696176478e-15
-2.5243592696176478e-15
-2.3113333110030858e-15
-2.3113333110030858e-15
-2.3113333110030858e-15
-2.3113333110030858e-15
-2.3113333110030858e-15
4.020543189637026e-16
4.020543189637026e-16
4.020543189637026e-16
4.020543189637026e-16
4.020543189637026e-16