# vtk DataFile Version 4.0
SUAVE Model of PROWIM Propeller Wake 
ASCII
DATASET UNSTRUCTURED_GRID

POINTS 1800 float
2.5932 -4.9415 1.1146
2.6 -4.9316 1.1459
2.6072 -4.9217 1.1774
2.6142 -4.9117 1.2092
2.6207 -4.9016 1.2412
2.6262 -4.8914 1.2735
2.6308 -4.8811 1.3062
2.6343 -4.8707 1.3392
2.6368 -4.8602 1.3725
2.6382 -4.8496 1.406
2.6387 -4.839 1.4397
2.6383 -4.8283 1.4736
2.6371 -4.8176 1.5076
2.6351 -4.8068 1.5418
2.6324 -4.796 1.576
2.6288 -4.7852 1.6104
2.6245 -4.7744 1.6448
2.6191 -4.7635 1.6792
2.6124 -4.7526 1.7138
2.6032 -4.7417 1.7483
2.5065 -4.9758 1.1242
2.5134 -4.9758 1.157
2.5205 -4.9758 1.1901
2.5276 -4.9758 1.2234
2.534 -4.9758 1.257
2.5396 -4.9758 1.2909
2.5442 -4.9758 1.3252
2.5477 -4.9758 1.3598
2.5501 -4.9758 1.3947
2.5515 -4.9758 1.4299
2.552 -4.9758 1.4652
2.5516 -4.9758 1.5008
2.5504 -4.9758 1.5365
2.5484 -4.9758 1.5723
2.5457 -4.9758 1.6082
2.5422 -4.9758 1.6442
2.5378 -4.9758 1.6803
2.5325 -4.9758 1.7164
2.5257 -4.9758 1.7526
2.5165 -4.9758 1.7889
2.5932 -4.9415 1.1146
2.6 -4.9316 1.1459
2.6072 -4.9217 1.1774
2.6142 -4.9117 1.2092
2.6207 -4.9016 1.2412
2.6262 -4.8914 1.2735
2.6308 -4.8811 1.3062
2.6343 -4.8707 1.3392
2.6368 -4.8602 1.3725
2.6382 -4.8496 1.406
2.6387 -4.839 1.4397
2.6383 -4.8283 1.4736
2.6371 -4.8176 1.5076
2.6351 -4.8068 1.5418
2.6324 -4.796 1.576
2.6288 -4.7852 1.6104
2.6245 -4.7744 1.6448
2.6191 -4.7635 1.6792
2.6124 -4.7526 1.7138
2.6032 -4.7417 1.7483
2.6798 -4.9103 1.0948
2.6867 -4.8915 1.1217
2.6939 -4.8726 1.1488
2.7009 -4.8535 1.1761
2.7073 -4.8342 1.2036
2.7129 -4.8148 1.2314
2.7175 -4.7951 1.2594
2.721 -4.7753 1.2878
2.7234 -4.7553 1.3164
2.7249 -4.7351 1.3451
2.7254 -4.7148 1.3741
2.725 -4.6945 1.4032
2.7237 -4.674 1.4324
2.7218 -4.6535 1.4617
2.719 -4.6329 1.4911
2.7155 -4.6123 1.5206
2.7111 -4.5916 1.5501
2.7058 -4.5709 1.5797
2.699 -4.5502 1.6094
2.6898 -4.5294 1.639
2.7665 -4.8852 1.0664
2.7733 -4.8592 1.0864
2.7805 -4.833 1.1065
2.7876 -4.8066 1.1268
2.794 -4.7799 1.1473
2.7996 -4.753 1.1679
2.8041 -4.7259 1.1887
2.8076 -4.6984 1.2098
2.8101 -4.6708 1.2311
2.8115 -4.6429 1.2524
2.812 -4.6149 1.274
2.8116 -4.5867 1.2956
2.8104 -4.5585 1.3173
2.8084 -4.5301 1.339
2.8057 -4.5016 1.3609
2.8022 -4.4731 1.3828
2.7978 -4.4445 1.4047
2.7924 -4.4159 1.4267
2.7857 -4.3872 1.4487
2.7765 -4.3585 1.4708
2.8532 -4.8685 1.0316
2.86 -4.8377 1.0428
2.8672 -4.8066 1.0541
2.8742 -4.7753 1.0655
2.8806 -4.7438 1.077
2.8862 -4.7119 1.0886
2.8908 -4.6798 1.1003
2.8943 -4.6473 1.1122
2.8968 -4.6145 1.1241
2.8982 -4.5815 1.1361
2.8987 -4.5484 1.1482
2.8983 -4.515 1.1604
2.8971 -4.4815 1.1725
2.8951 -4.448 1.1848
2.8923 -4.4143 1.1971
2.8888 -4.3805 1.2094
2.8845 -4.3466 1.2217
2.8791 -4.3127 1.234
2.8724 -4.2788 1.2464
2.8632 -4.2448 1.2588
2.9398 -4.8617 0.9931
2.9467 -4.8289 0.9946
2.9539 -4.7959 0.996
2.9609 -4.7627 0.9975
2.9673 -4.7291 0.999
2.9729 -4.6953 1.0004
2.9775 -4.6611 1.002
2.981 -4.6266 1.0035
2.9834 -4.5917 1.005
2.9849 -4.5567 1.0065
2.9853 -4.5214 1.0081
2.985 -4.486 1.0097
2.9837 -4.4504 1.0112
2.9817 -4.4147 1.0128
2.979 -4.3789 1.0144
2.9755 -4.343 1.0159
2.9711 -4.307 1.0175
2.9658 -4.271 1.0191
2.959 -4.2349 1.0207
2.9498 -4.1988 1.0223
3.0265 -4.8655 0.9542
3.0333 -4.8338 0.9457
3.0405 -4.8019 0.9372
3.0475 -4.7697 0.9286
3.054 -4.7373 0.9199
3.0596 -4.7046 0.9112
3.0641 -4.6715 0.9023
3.0676 -4.6381 0.8934
3.0701 -4.6045 0.8844
3.0715 -4.5706 0.8753
3.072 -4.5365 0.8662
3.0716 -4.5023 0.857
3.0704 -4.4679 0.8478
3.0684 -4.4334 0.8386
3.0657 -4.3988 0.8294
3.0621 -4.3641 0.8201
3.0578 -4.3294 0.8108
3.0524 -4.2945 0.8015
3.0457 -4.2597 0.7921
3.0365 -4.2247 0.7828
3.1131 -4.8795 0.918
3.12 -4.8518 0.9004
3.1272 -4.8239 0.8827
3.1342 -4.7959 0.8648
3.1406 -4.7675 0.8468
3.1462 -4.739 0.8286
3.1508 -4.7101 0.8102
3.1543 -4.681 0.7917
3.1567 -4.6516 0.773
3.1582 -4.622 0.7542
3.1587 -4.5923 0.7352
3.1583 -4.5624 0.7162
3.1571 -4.5324 0.6971
3.1551 -4.5023 0.678
3.1523 -4.4721 0.6587
3.1488 -4.4418 0.6395
3.1445 -4.4115 0.6202
3.1391 -4.3811 0.6008
3.1323 -4.3506 0.5815
3.1231 -4.3202 0.5621
3.1998 -4.9024 0.8875
3.2067 -4.8813 0.8624
3.2138 -4.86 0.8371
3.2209 -4.8386 0.8116
3.2273 -4.817 0.7859
3.2329 -4.7953 0.76
3.2375 -4.7733 0.7338
3.241 -4.7511 0.7074
3.2434 -4.7287 0.6807
3.2448 -4.7061 0.6539
3.2453 -4.6835 0.6269
3.2449 -4.6607 0.5998
3.2437 -4.6378 0.5726
3.2417 -4.6149 0.5453
3.239 -4.5919 0.5179
3.2355 -4.5688 0.4905
3.2311 -4.5457 0.463
3.2258 -4.5226 0.4354
3.219 -4.4994 0.4078
3.2098 -4.4762 0.3802
3.2865 -4.9321 0.8651
3.2933 -4.9195 0.8348
3.3005 -4.9068 0.8043
3.3075 -4.8941 0.7736
3.314 -4.8812 0.7426
3.3195 -4.8683 0.7113
3.3241 -4.8552 0.6798
3.3276 -4.8419 0.6479
3.3301 -4.8286 0.6158
3.3315 -4.8152 0.5834
3.332 -4.8017 0.5509
3.3316 -4.7881 0.5182
3.3304 -4.7745 0.4854
3.3284 -4.7609 0.4525
3.3257 -4.7472 0.4195
3.3221 -4.7334 0.3864
3.3178 -4.7197 0.3533
3.3124 -4.7059 0.32
3.3057 -4.6921 0.2868
3.2965 -4.6783 0.2535
3.3731 -4.9658 0.8524
3.38 -4.9629 0.8198
3.3872 -4.96 0.7869
3.3942 -4.9571 0.7537
3.4006 -4.9542 0.7203
3.4062 -4.9512 0.6866
3.4108 -4.9482 0.6526
3.4143 -4.9452 0.6183
3.4167 -4.9421 0.5836
3.4182 -4.939 0.5488
3.4187 -4.9359 0.5137
3.4183 -4.9328 0.4785
3.417 -4.9297 0.4432
3.4151 -4.9266 0.4077
3.4123 -4.9235 0.3722
3.4088 -4.9203 0.3365
3.4044 -4.9172 0.3008
3.3991 -4.914 0.265
3.3923 -4.9109 0.2292
3.3831 -4.9077 0.1933
3.4598 -5.0005 0.8503
3.4666 -5.0076 0.8183
3.4738 -5.0147 0.786
3.4808 -5.0218 0.7536
3.4873 -5.0291 0.7208
3.4929 -5.0364 0.6878
3.4974 -5.0437 0.6545
3.5009 -5.0512 0.6208
3.5034 -5.0587 0.5869
3.5048 -5.0662 0.5528
3.5053 -5.0738 0.5185
3.5049 -5.0814 0.484
3.5037 -5.089 0.4494
3.5017 -5.0967 0.4147
3.499 -5.1044 0.3798
3.4955 -5.1121 0.3449
3.4911 -5.1198 0.31
3.4857 -5.1276 0.2749
3.479 -5.1353 0.2398
3.4698 -5.1431 0.2047
3.5465 -5.0329 0.8585
3.5533 -5.0492 0.8301
3.5605 -5.0657 0.8015
3.5675 -5.0823 0.7727
3.5739 -5.099 0.7436
3.5795 -5.1159 0.7144
3.5841 -5.133 0.6848
3.5876 -5.1501 0.655
3.5901 -5.1675 0.6249
3.5915 -5.1849 0.5946
3.592 -5.2024 0.5642
3.5916 -5.22 0.5337
3.5904 -5.2377 0.503
3.5884 -5.2555 0.4722
3.5856 -5.2732 0.4414
3.5821 -5.2911 0.4104
3.5778 -5.3089 0.3794
3.5724 -5.3268 0.3484
3.5657 -5.3447 0.3173
3.5565 -5.3627 0.2862
3.6331 -5.06 0.8758
3.64 -5.0841 0.8537
3.6472 -5.1084 0.8314
3.6542 -5.1329 0.8089
3.6606 -5.1576 0.7862
3.6662 -5.1825 0.7634
3.6708 -5.2076 0.7403
3.6743 -5.2329 0.7171
3.6767 -5.2585 0.6936
3.6782 -5.2842 0.67
3.6786 -5.31 0.6463
3.6783 -5.3359 0.6225
3.677 -5.362 0.5986
3.675 -5.3881 0.5746
3.6723 -5.4143 0.5506
3.6688 -5.4406 0.5265
3.6644 -5.4669 0.5023
3.6591 -5.4932 0.4781
3.6523 -5.5196 0.4539
3.6431 -5.5461 0.4296
3.7198 -5.0793 0.9003
3.7266 -5.109 0.8864
3.7338 -5.1389 0.8725
3.7408 -5.169 0.8584
3.7473 -5.1993 0.8442
3.7529 -5.2299 0.8299
3.7574 -5.2607 0.8155
3.7609 -5.2918 0.801
3.7634 -5.3232 0.7863
3.7648 -5.3548 0.7715
3.7653 -5.3865 0.7567
3.7649 -5.4184 0.7418
3.7637 -5.4503 0.7269
3.7617 -5.4824 0.7119
3.759 -5.5146 0.6968
3.7554 -5.5468 0.6818
3.7511 -5.5791 0.6667
3.7457 -5.6115 0.6516
3.739 -5.6439 0.6364
3.7298 -5.6763 0.6212
3.8064 -5.0891 0.9293
3.8133 -5.1216 0.925
3.8205 -5.1542 0.9206
3.8275 -5.1871 0.9163
3.8339 -5.2203 0.9119
3.8395 -5.2537 0.9074
3.8441 -5.2875 0.903
3.8476 -5.3215 0.8984
3.85 -5.3558 0.8939
3.8515 -5.3902 0.8893
3.852 -5.4249 0.8847
3.8516 -5.4597 0.8801
3.8504 -5.4946 0.8755
3.8484 -5.5297 0.8708
3.8456 -5.5648 0.8662
3.8421 -5.6 0.8615
3.8378 -5.6353 0.8568
3.8324 -5.6706 0.8521
3.8256 -5.706 0.8474
3.8164 -5.7414 0.8427
3.8931 -5.0884 0.9596
3.9 -5.1206 0.9653
3.9071 -5.1531 0.971
3.9142 -5.1858 0.9767
3.9206 -5.2187 0.9825
3.9262 -5.2519 0.9883
3.9308 -5.2853 0.9942
3.9343 -5.3191 1.0001
3.9367 -5.3531 1.006
3.9381 -5.3873 1.012
3.9386 -5.4217 1.018
3.9382 -5.4562 1.0241
3.937 -5.4908 1.0302
3.935 -5.5256 1.0362
3.9323 -5.5604 1.0423
3.9288 -5.5953 1.0485
3.9244 -5.6302 1.0546
3.9191 -5.6653 1.0607
3.9123 -5.7003 1.0669
3.9031 -5.7354 1.073
3.9798 -5.0772 0.9882
3.9866 -5.1063 1.0033
3.9938 -5.1355 1.0184
4.0008 -5.1649 1.0337
4.0073 -5.1946 1.0491
4.0128 -5.2244 1.0646
4.0174 -5.2546 1.0802
4.0209 -5.2849 1.096
4.0234 -5.3155 1.1119
4.0248 -5.3463 1.1278
4.0253 -5.3772 1.1439
4.0249 -5.4082 1.16
4.0237 -5.4393 1.1761
4.0217 -5.4706 1.1924
4.0189 -5.5019 1.2086
4.0154 -5.5332 1.2249
4.0111 -5.5646 1.2412
4.0057 -5.5961 1.2575
3.999 -5.6276 1.2739
3.9898 -5.6591 1.2902
4.0664 -5.0567 1.0118
4.0733 -5.0799 1.035
4.0805 -5.1032 1.0582
4.0875 -5.1266 1.0816
4.0939 -5.1503 1.1052
4.0995 -5.174 1.1289
4.1041 -5.198 1.1528
4.1076 -5.2222 1.1769
4.11 -5.2465 1.2012
4.1115 -5.271 1.2256
4.112 -5.2956 1.2502
4.1116 -5.3203 1.2748
4.1103 -5.3451 1.2995
4.1084 -5.3699 1.3242
4.1056 -5.3948 1.3491
4.1021 -5.4197 1.374
4.0977 -5.4447 1.3989
4.0924 -5.4697 1.4238
4.0856 -5.4948 1.4488
4.0764 -5.5198 1.4738
4.1531 -5.0287 1.028
4.1599 -5.0439 1.057
4.1671 -5.0591 1.0862
4.1741 -5.0744 1.1155
4.1806 -5.0898 1.1451
4.1862 -5.1054 1.1748
4.1907 -5.121 1.2048
4.1942 -5.1368 1.235
4.1967 -5.1527 1.2654
4.1981 -5.1686 1.2959
4.1986 -5.1846 1.3266
4.1982 -5.2007 1.3574
4.197 -5.2169 1.3883
4.195 -5.233 1.4193
4.1923 -5.2492 1.4503
4.1888 -5.2655 1.4815
4.1844 -5.2818 1.5126
4.179 -5.2981 1.5438
4.1723 -5.3144 1.575
4.1631 -5.3307 1.6063
4.2398 -4.9958 1.0349
4.2466 -5.0016 1.0671
4.2538 -5.0073 1.0994
4.2608 -5.0131 1.132
4.2672 -5.0189 1.1647
4.2728 -5.0248 1.1977
4.2774 -5.0307 1.2309
4.2809 -5.0366 1.2644
4.2834 -5.0426 1.298
4.2848 -5.0486 1.3319
4.2853 -5.0546 1.3658
4.2849 -5.0607 1.3999
4.2837 -5.0668 1.4341
4.2817 -5.0729 1.4683
4.2789 -5.079 1.5027
4.2754 -5.0851 1.5371
4.2711 -5.0912 1.5715
4.2657 -5.0973 1.606
4.259 -5.1035 1.6406
4.2498 -5.1096 1.6751
4.3264 -4.9611 1.0313
4.3333 -4.9569 1.0637
4.3405 -4.9526 1.0963
4.3475 -4.9484 1.129
4.3539 -4.9441 1.1619
4.3595 -4.9398 1.1951
4.3641 -4.9354 1.2284
4.3676 -4.9311 1.262
4.37 -4.9267 1.2958
4.3715 -4.9222 1.3297
4.3719 -4.9178 1.3638
4.3715 -4.9134 1.398
4.3703 -4.9089 1.4322
4.3683 -4.9044 1.4666
4.3656 -4.8999 1.501
4.3621 -4.8955 1.5354
[...]
CELL_DATA 1653
SCALARS circulation float 1
LOOKUP_TABLE default
1.0845278344880995
1.6734508258741025
2.3555916016743113
3.056781864972076
3.808708493547665
4.64645368928739
5.494639067207215
6.246013496492344
6.850105736154273
7.307752355081475
7.649972502338241
7.893998683699051
8.02086720747992
8.006088902928921
7.843305175849457
7.523660508432776
7.011286770167786
6.234891361538257
5.0119386167134445
1.0845278344880995
1.6734508258741025
2.3555916016743113
3.056781864972076
3.808708493547665
4.64645368928739
5.494639067207215
6.246013496492344
6.850105736154273
7.307752355081475
7.649972502338241
7.893998683699051
8.02086720747992
8.006088902928921
7.843305175849457
7.523660508432776
7.011286770167786
6.234891361538257
5.0119386167134445
1.0845278344880995
1.6734508258741025
2.3555916016743113
3.056781864972076
3.808708493547665
4.64645368928739
5.494639067207215
6.246013496492344
6.850105736154273
7.307752355081475
7.649972502338241
7.893998683699051
8.02086720747992
8.006088902928921
7.843305175849457
7.523660508432776
7.011286770167786
6.234891361538257
5.0119386167134445
1.0845278344880995
1.6734508258741025
2.3555916016743113
3.056781864972076
3.808708493547665
4.64645368928739
5.494639067207215
6.246013496492344
6.850105736154273
7.307752355081475
7.649972502338241
7.893998683699051
8.02086720747992
8.006088902928921
7.843305175849457
7.523660508432776
7.011286770167786
6.234891361538257
5.0119386167134445
1.0845278344880995
1.6734508258741025
2.3555916016743113
3.056781864972076
3.808708493547665
4.64645368928739
5.494639067207215
6.246013496492344
6.850105736154273
7.307752355081475
7.649972502338241
7.893998683699051
8.02086720747992
8.006088902928921
7.843305175849457
7.523660508432776
7.011286770167786
6.234891361538257
5.0119386167134445
1.0845278344880995
1.6734508258741025
2.3555916016743113
3.056781864972076
3.808708493547665
4.64645368928739
5.494639067207215
6.246013496492344
6.850105736154273
7.307752355081475
7.649972502338241
7.893998683699051
8.02086720747992
8.006088902928921
7.843305175849457
7.523660508432776
7.011286770167786
6.234891361538257
5.0119386167134445
1.0845278344880995
1.6734508258741025
2.3555916016743113
3.056781864972076
3.808708493547665
4.64645368928739
5.494639067207215
6.246013496492344
6.850105736154273
7.307752355081475
7.649972502338241
7.893998683699051
8.02086720747992
8.006088902928921
7.843305175849457
7.523660508432776
7.011286770167786
6.234891361538257
5.0119386167134445
1.0845278344880995
1.6734508258741025
2.3555916016743113
3.056781864972076
3.808708493547665
4.64645368928739
5.494639067207215
6.246013496492344
6.850105736154273
7.307752355081475
7.649972502338241
7.893998683699051
8.02086720747992
8.006088902928921
7.843305175849457
7.523660508432776
7.011286770167786
6.234891361538257
5.0119386167134445
1.0845278344880995
1.6734508258741025
2.3555916016743113
3.056781864972076
3.808708493547665
4.64645368928739
5.494639067207215
6.246013496492344
6.850105736154273
7.307752355081475
7.649972502338241
7.893998683699051
8.02086720747992
8.006088902928921
7.843305175849457
7.523660508432776
7.011286770167786
6.234891361538257
5.0119386167134445
1.0845278344880995
1.6734508258741025
2.3555916016743113
3.056781864972076
3.808708493547665
4.64645368928739
5.494639067207215
6.246013496492344
6.850105736154273
7.307752355081475
7.649972502338241
7.893998683699051
8.02086720747992
8.006088902928921
7.843305175849457
7.523660508432776
7.011286770167786
6.234891361538257
5.0119386167134445
1.0845278344880995
1.6734508258741025
2.3555916016743113
3.056781864972076
3.808708493547665
4.64645368928739
5.494639067207215
6.246013496492344
6.850105736154273
7.307752355081475
7.649972502338241
7.893998683699051
8.02086720747992
8.006088902928921
7.843305175849457
7.523660508432776
7.011286770167786
6.234891361538257
5.0119386167134445
1.0845278344880995
1.6734508258741025
2.3555916016743113
3.056781864972076
3.808708493547665
4.64645368928739
5.494639067207215
6.246013496492344
6.850105736154273
7.307752355081475
7.649972502338241
7.893998683699051
8.02086720747992
8.006088902928921
7.843305175849457
7.523660508432776
7.011286770167786
6.234891361538257
5.0119386167134445
1.0845278344880995
1.6734508258741025
2.3555916016743113
3.056781864972076
3.808708493547665
4.64645368928739
5.494639067207215
6.246013496492344
6.850105736154273
7.307752355081475
7.649972502338241
7.893998683699051
8.02086720747992
8.006088902928921
7.843305175849457
7.523660508432776
7.011286770167786
6.234891361538257
5.0119386167134445
1.0845278344880995
1.6734508258741025
2.3555916016743113
3.056781864972076
3.808708493547665
4.64645368928739
5.494639067207215
6.246013496492344
6.850105736154273
7.307752355081475
7.649972502338241
7.893998683699051
8.02086720747992
8.006088902928921
7.843305175849457
7.523660508432776
7.011286770167786
6.234891361538257
5.0119386167134445
1.0845278344880995
1.6734508258741025
2.3555916016743113
3.056781864972076
3.808708493547665
4.64645368928739
5.494639067207215
6.246013496492344
6.850105736154273
7.307752355081475
7.649972502338241
7.893998683699051
8.02086720747992
8.006088902928921
7.843305175849457
7.523660508432776
7.011286770167786
6.234891361538257
5.0119386167134445
1.0845278344880995
1.6734508258741025
2.3555916016743113
3.056781864972076
3.808708493547665
4.64645368928739
5.494639067207215
6.246013496492344
6.850105736154273
7.307752355081475
7.649972502338241
7.893998683699051
8.02086720747992
8.006088902928921
7.843305175849457
7.523660508432776
7.011286770167786
6.234891361538257
5.0119386167134445
1.0845278344880995
1.6734508258741025
2.3555916016743113
3.056781864972076
3.808708493547665
4.64645368928739
5.494639067207215
6.246013496492344
6.850105736154273
7.307752355081475
7.649972502338241
7.893998683699051
8.02086720747992
8.006088902928921
7.843305175849457
7.523660508432776
7.011286770167786
6.234891361538257
5.0119386167134445
1.0845278344880995
1.6734508258741025
2.3555916016743113
3.056781864972076
3.808708493547665
4.64645368928739
5.494639067207215
6.246013496492344
6.850105736154273
7.307752355081475
7.649972502338241
7.893998683699051
8.02086720747992
8.006088902928921
7.843305175849457
7.523660508432776
7.011286770167786
6.234891361538257
5.0119386167134445
1.0845278344880995
1.6734508258741025
2.3555916016743113
3.056781864972076
3.808708493547665
4.64645368928739
5.494639067207215
6.246013496492344
6.850105736154273
7.307752355081475
7.649972502338241
7.893998683699051
8.02086720747992
8.006088902928921
7.843305175849457
7.523660508432776
7.011286770167786
6.234891361538257
5.0119386167134445
1.0845278344880995
1.6734508258741025
2.3555916016743113
3.056781864972076
3.808708493547665
4.64645368928739
5.494639067207215
6.246013496492344
6.850105736154273
7.307752355081475
7.649972502338241
7.893998683699051
8.02086720747992
8.006088902928921
7.843305175849457
7.523660508432776
7.011286770167786
6.234891361538257
5.0119386167134445
1.0845278344880995
1.6734508258741025
2.3555916016743113
3.056781864972076
3.808708493547665
4.64645368928739
5.494639067207215
6.246013496492344
6.850105736154273
7.307752355081475
7.649972502338241
7.893998683699051
8.02086720747992
8.006088902928921
7.843305175849457
7.523660508432776
7.011286770167786
6.234891361538257
5.0119386167134445
1.0845278344880995
1.6734508258741025
2.3555916016743113
3.056781864972076
3.808708493547665
4.64645368928739
5.494639067207215
6.246013496492344
6.850105736154273
7.307752355081475
7.649972502338241
7.893998683699051
8.02086720747992
8.006088902928921
7.843305175849457
7.523660508432776
7.011286770167786
6.234891361538257
5.0119386167134445
1.0845278344880995
1.6734508258741025
2.3555916016743113
3.056781864972076
3.808708493547665
4.64645368928739
5.494639067207215
6.246013496492344
6.850105736154273
7.307752355081475
7.649972502338241
7.893998683699051
8.02086720747992
8.006088902928921
7.843305175849457
7.523660508432776
7.011286770167786
6.234891361538257
5.0119386167134445
1.0845278344880995
1.6734508258741025
2.3555916016743113
3.056781864972076
3.808708493547665
4.64645368928739
5.494639067207215
6.246013496492344
6.850105736154273
7.307752355081475
7.649972502338241
7.893998683699051
8.02086720747992
8.006088902928921
7.843305175849457
7.523660508432776
7.011286770167786
6.234891361538257
5.0119386167134445
1.0845278344880995
1.6734508258741025
2.3555916016743113
3.056781864972076
3.808708493547665
4.64645368928739
5.494639067207215
6.246013496492344
6.850105736154273
7.307752355081475
7.649972502338241
7.893998683699051
8.02086720747992
8.006088902928921
7.843305175849457
7.523660508432776
7.011286770167786
6.234891361538257
5.0119386167134445
1.0845278344880995
1.6734508258741025
2.3555916016743113
3.056781864972076
3.808708493547665
4.64645368928739
5.494639067207215
6.246013496492344
6.850105736154273
7.307752355081475
7.649972502338241
7.893998683699051
8.02086720747992
8.006088902928921
7.843305175849457
7.523660508432776
7.011286770167786
6.234891361538257
5.0119386167134445
1.0845278344880995
1.6734508258741025
2.3555916016743113
3.056781864972076
3.808708493547665
4.64645368928739
5.494639067207215
6.246013496492344
6.850105736154273
7.307752355081475
7.649972502338241
7.893998683699051
8.02086720747992
8.006088902928921
7.843305175849457
7.523660508432776
7.011286770167786
6.234891361538257
5.0119386167134445
1.0845278344880995
1.6734508258741025
2.3555916016743113
3.056781864972076
3.808708493547665
4.64645368928739
5.494639067207215
6.246013496492344
6.850105736154273
7.307752355081475
7.649972502338241
7.893998683699051
8.02086720747992
8.006088902928921
7.843305175849457
7.523660508432776
7.011286770167786
6.234891361538257
5.0119386167134445
1.0845278344880995
1.6734508258741025
2.3555916016743113
3.056781864972076
3.808708493547665
4.64645368928739
5.494639067207215
6.246013496492344
6.850105736154273
7.307752355081475
7.649972502338241
7.893998683699051
8.02086720747992
8.006088902928921
7.843305175849457
7.523660508432776
7.011286770167786
6.234891361538257
5.0119386167134445
1.0845278344880995
1.6734508258741025
2.3555916016743113
3.056781864972076
3.808708493547665
4.64645368928739
5.494639067207215
6.246013496492344
6.850105736154273
7.307752355081475
7.649972502338241
7.893998683699051
8.02086720747992
8.006088902928921
7.843305175849457
7.523660508432776
7.011286770167786
6.234891361538257
5.0119386167134445
1.0845278344880995
1.6734508258741025
2.3555916016743113
3.056781864972076
3.808708493547665
4.64645368928739
5.494639067207215
6.246013496492344
6.850105736154273
7.307752355081475
7.649972502338241
7.893998683699051
8.02086720747992
8.006088902928921
7.843305175849457
7.523660508432776
7.011286770167786
6.234891361538257
5.0119386167134445
1.0845278344880995
1.6734508258741025
2.3555916016743113
3.056781864972076
3.808708493547665
4.64645368928739
5.494639067207215
6.246013496492344
6.850105736154273
7.307752355081475
7.649972502338241
7.893998683699051
8.02086720747992
8.006088902928921
7.843305175849457
7.523660508432776
7.011286770167786
6.234891361538257
5.0119386167134445
1.0845278344880995
1.6734508258741025
2.3555916016743113
3.056781864972076
3.808708493547665
4.64645368928739
5.494639067207215
6.246013496492344
6.850105736154273
7.307752355081475
7.649972502338241
7.893998683699051
8.02086720747992
8.006088902928921
7.843305175849457
7.523660508432776
7.011286770167786
6.234891361538257
5.0119386167134445
1.0845278344880995
1.6734508258741025
2.3555916016743113
3.056781864972076
3.808708493547665
4.64645368928739
5.494639067207215
6.246013496492344
6.850105736154273
7.307752355081475
7.649972502338241
7.893998683699051
8.02086720747992
8.006088902928921
7.843305175849457
7.523660508432776
7.011286770167786
6.234891361538257
5.0119386167134445
1.0845278344880995
1.6734508258741025
2.3555916016743113
3.056781864972076
3.808708493547665
4.64645368928739
5.494639067207215
6.246013496492344
6.850105736154273
7.307752355081475
7.649972502338241
7.893998683699051
8.02086720747992
8.006088902928921
7.843305175849457
7.523660508432776
7.011286770167786
6.234891361538257
5.0119386167134445
1.0845278344880995
1.6734508258741025
2.3555916016743113
3.056781864972076
3.808708493547665
4.64645368928739
5.494639067207215
6.246013496492344
6.850105736154273
7.307752355081475
7.649972502338241
7.893998683699051
8.02086720747992
8.006088902928921
7.843305175849457
7.523660508432776
7.011286770167786
6.234891361538257
5.0119386167134445
1.0845278344880995
1.6734508258741025
2.3555916016743113
3.056781864972076
3.808708493547665
4.64645368928739
5.494639067207215
6.246013496492344
6.850105736154273
7.307752355081475
7.649972502338241
7.893998683699051
8.02086720747992
8.006088902928921
7.843305175849457
7.523660508432776
7.011286770167786
6.234891361538257
5.0119386167134445
1.0845278344880995
1.6734508258741025
2.3555916016743113
3.056781864972076
3.808708493547665
4.64645368928739
5.494639067207215
6.246013496492344
6.850105736154273
7.307752355081475
7.649972502338241
7.893998683699051
8.02086720747992
8.006088902928921
7.843305175849457
7.523660508432776
7.011286770167786
6.234891361538257
5.0119386167134445
1.0845278344880995
1.6734508258741025
2.3555916016743113
3.056781864972076
3.808708493547665
4.64645368928739
5.494639067207215
6.246013496492344
6.850105736154273
7.307752355081475
7.649972502338241
7.893998683699051
8.02086720747992
8.006088902928921
7.843305175849457
7.523660508432776
7.011286770167786
6.234891361538257
5.0119386167134445
1.0845278344880995
1.6734508258741025
2.3555916016743113
3.056781864972076
3.808708493547665
4.64645368928739
5.494639067207215
6.246013496492344
6.850105736154273
7.307752355081475
7.649972502338241
7.893998683699051
8.02086720747992
8.006088902928921
7.843305175849457
7.523660508432776
7.011286770167786
6.234891361538257
5.0119386167134445
1.0845278344880995
1.6734508258741025
2.3555916016743113
3.056781864972076
3.808708493547665
4.64645368928739
5.494639067207215
6.246013496492344
6.850105736154273
7.307752355081475
7.649972502338241
7.893998683699051
8.02086720747992
8.006088902928921
7.843305175849457
7.523660508432776
7.011286770167786
6.234891361538257
5.0119386167134445
1.0845278344880995
1.6734508258741025
2.3555916016743113
3.056781864972076
3.808708493547665
4.64645368928739
5.494639067207215
6.246013496492344
6.850105736154273
7.307752355081475
7.649972502338241
7.893998683699051
8.02086720747992
8.006088902928921
7.843305175849457
7.523660508432776
7.011286770167786
6.234891361538257
5.0119386167134445
1.0845278344880995
1.6734508258741025
2.3555916016743113
3.056781864972076
3.808708493547665
4.64645368928739
5.494639067207215
6.246013496492344
6.850105736154273
7.307752355081475
7.649972502338241
7.893998683699051
8.02086720747992
8.006088902928921
7.843305175849457
7.523660508432776
7.011286770167786
6.234891361538257
5.0119386167134445
1.0845278344880995
1.6734508258741025
2.3555916016743113
3.056781864972076
3.808708493547665
4.64645368928739
5.494639067207215
6.246013496492344
6.850105736154273
7.307752355081475
7.649972502338241
7.893998683699051
8.02086720747992
8.006088902928921
7.843305175849457
7.523660508432776
7.011286770167786
6.234891361538257
5.0119386167134445
1.0845278344880995
1.6734508258741025
2.3555916016743113
3.056781864972076
3.808708493547665
4.64645368928739
5.494639067207215
6.246013496492344
6.850105736154273
7.307752355081475
7.649972502338241
7.893998683699051
8.02086720747992
8.006088902928921
7.843305175849457
7.523660508432776
7.011286770167786
6.234891361538257
5.0119386167134445
1.0845278344880995
1.6734508258741025
2.3555916016743113
3.056781864972076
3.808708493547665
4.64645368928739
5.494639067207215
6.246013496492344
6.850105736154273
7.307752355081475
7.649972502338241
7.893998683699051
8.02086720747992
8.006088902928921
7.843305175849457
7.523660508432776
7.011286770167786
6.234891361538257
5.0119386167134445
1.0845278344880995
1.6734508258741025
2.3555916016743113
3.056781864972076
3.808708493547665
4.64645368928739
5.494639067207215
6.246013496492344
6.850105736154273
7.307752355081475
7.649972502338241
7.893998683699051
8.02086720747992
8.006088902928921
7.843305175849457
7.523660508432776
7.011286770167786
6.234891361538257
5.0119386167134445
1.0845278344880995
1.6734508258741025
2.3555916016743113
3.056781864972076
3.808708493547665
4.64645368928739
5.494639067207215
6.246013496492344
6.850105736154273
7.307752355081475
7.649972502338241
7.893998683699051
8.02086720747992
8.006088902928921
7.843305175849457
7.523660508432776
7.011286770167786
6.234891361538257
5.0119386167134445
1.0845278344880995
1.6734508258741025
2.3555916016743113
3.056781864972076
3.808708493547665
4.64645368928739
5.494639067207215
6.246013496492344
6.850105736154273
7.307752355081475
7.649972502338241
7.893998683699051
8.02086720747992
8.006088902928921
7.843305175849457
7.523660508432776
7.011286770167786
6.234891361538257
5.0119386167134445
1.0845278344880995
1.6734508258741025
2.3555916016743113
3.056781864972076
3.808708493547665
4.64645368928739
5.494639067207215
6.246013496492344
6.850105736154273
7.307752355081475
7.649972502338241
7.893998683699051
8.02086720747992
8.006088902928921
7.843305175849457
7.523660508432776
7.011286770167786
6.234891361538257
5.0119386167134445
1.0845278344880995
1.6734508258741025
2.3555916016743113
3.056781864972076
3.808708493547665
4.64645368928739
5.494639067207215
6.246013496492344
6.850105736154273
7.307752355081475
7.649972502338241
7.893998683699051
8.02086720747992
8.006088902928921
7.843305175849457
7.523660508432776
7.011286770167786
6.234891361538257
5.0119386167134445
1.0845278344880995
1.6734508258741025
2.3555916016743113
3.056781864972076
3.808708493547665
4.64645368928739
5.494639067207215
6.246013496492344
6.850105736154273
7.307752355081475
7.649972502338241
7.893998683699051
8.02086720747992
8.006088902928921
7.843305175849457
7.523660508432776
7.011286770167786
6.234891361538257
5.0119386167134445
1.0845278344880995
1.6734508258741025
2.3555916016743113
3.056781864972076
3.808708493547665
4.64645368928739
5.494639067207215
6.246013496492344
6.850105736154273
7.307752355081475
7.649972502338241
7.893998683699051
8.02086720747992
8.006088902928921
7.843305175849457
7.523660508432776
7.011286770167786
6.234891361538257
5.0119386167134445
1.0845278344880995
1.6734508258741025
2.3555916016743113
3.056781864972076
3.808708493547665
4.64645368928739
5.494639067207215
6.246013496492344
6.850105736154273
7.307752355081475
7.649972502338241
7.893998683699051
8.02086720747992
8.006088902928921
7.843305175849457
7.523660508432776
7.011286770167786
6.234891361538257
5.0119386167134445
1.0845278344880995
1.6734508258741025
2.3555916016743113
3.056781864972076
3.808708493547665
4.64645368928739
5.494639067207215
6.246013496492344
6.850105736154273
7.307752355081475
7.649972502338241
7.893998683699051
8.02086720747992
8.006088902928921
7.843305175849457
7.523660508432776
7.011286770167786
6.234891361538257
5.0119386167134445
1.0845278344880995
1.6734508258741025
2.3555916016743113
3.056781864972076
3.808708493547665
4.64645368928739
5.494639067207215
6.246013496492344
6.850105736154273
7.307752355081475
7.649972502338241
7.893998683699051
8.02086720747992
8.006088902928921
7.843305175849457
7.523660508432776
7.011286770167786
6.234891361538257
5.0119386167134445
1.0845278344880995
1.6734508258741025
2.3555916016743113
3.056781864972076
3.808708493547665
4.64645368928739
5.494639067207215
6.246013496492344
6.850105736154273
7.307752355081475
7.649972502338241
7.893998683699051
8.02086720747992
8.006088902928921
7.843305175849457
7.523660508432776
7.011286770167786
6.234891361538257
5.0119386167134445
1.0845278344880995
1.6734508258741025
2.3555916016743113
3.056781864972076
3.808708493547665
4.64645368928739
5.494639067207215
6.246013496492344
6.850105736154273
7.307752355081475
7.649972502338241
7.893998683699051
8.02086720747992
8.006088902928921
7.843305175849457
7.523660508432776
7.011286770167786
6.234891361538257