# vtk DataFile Version 4.0
SUAVE Model of PROWIM Propeller Wake 
ASCII
DATASET UNSTRUCTURED_GRID

POINTS 3000 float
2.5863 1.1198 1.096
2.5862 1.1251 1.1028
2.586 1.1304 1.1097
2.5857 1.1357 1.1165
2.5853 1.141 1.1234
2.5849 1.1463 1.1302
2.5844 1.1516 1.1371
2.5839 1.157 1.144
2.5834 1.1623 1.151
2.5829 1.1677 1.1579
2.5823 1.173 1.1649
2.5817 1.1784 1.1718
2.581 1.1838 1.1788
2.5803 1.1892 1.1858
2.5795 1.1946 1.1928
2.5785 1.2 1.1997
2.5775 1.2054 1.2067
2.5762 1.2108 1.2137
2.5746 1.2162 1.2207
2.5723 1.2215 1.2276
2.51 1.05 1.1242
2.5099 1.05 1.1328
2.5096 1.05 1.1415
2.5093 1.05 1.1501
2.509 1.05 1.1588
2.5085 1.05 1.1675
2.5081 1.05 1.1762
2.5076 1.05 1.1849
2.507 1.05 1.1937
2.5065 1.05 1.2025
2.5059 1.05 1.2112
2.5053 1.05 1.22
2.5046 1.05 1.2288
2.5039 1.05 1.2377
2.5031 1.05 1.2465
2.5022 1.05 1.2553
2.5011 1.05 1.2641
2.4998 1.05 1.273
2.4982 1.05 1.2818
2.4959 1.05 1.2906
2.5863 1.1198 1.096
2.5862 1.1251 1.1028
2.586 1.1304 1.1097
2.5857 1.1357 1.1165
2.5853 1.141 1.1234
2.5849 1.1463 1.1302
2.5844 1.1516 1.1371
2.5839 1.157 1.144
2.5834 1.1623 1.151
2.5829 1.1677 1.1579
2.5823 1.173 1.1649
2.5817 1.1784 1.1718
2.581 1.1838 1.1788
2.5803 1.1892 1.1858
2.5795 1.1946 1.1928
2.5785 1.2 1.1997
2.5775 1.2054 1.2067
2.5762 1.2108 1.2137
2.5746 1.2162 1.2207
2.5723 1.2215 1.2276
2.6627 1.1605 1.0301
2.6626 1.1689 1.0322
2.6624 1.1772 1.0344
2.6621 1.1856 1.0366
2.6617 1.194 1.0388
2.6613 1.2024 1.041
2.6608 1.2108 1.0432
2.6603 1.2193 1.0454
2.6598 1.2277 1.0476
2.6592 1.2362 1.0498
2.6586 1.2447 1.052
2.658 1.2532 1.0542
2.6574 1.2618 1.0565
2.6566 1.2703 1.0587
2.6558 1.2788 1.0609
2.6549 1.2874 1.0631
2.6538 1.2959 1.0654
2.6526 1.3045 1.0676
2.6509 1.313 1.0698
2.6487 1.3215 1.072
2.7391 1.1551 0.9521
2.739 1.163 0.9487
2.7388 1.1709 0.9453
2.7385 1.1789 0.9419
2.7381 1.1869 0.9385
2.7377 1.1949 0.9351
2.7372 1.2029 0.9317
2.7367 1.2109 0.9283
2.7362 1.219 0.9249
2.7356 1.2271 0.9214
2.735 1.2351 0.918
2.7344 1.2432 0.9145
2.7337 1.2513 0.9111
2.733 1.2595 0.9076
2.7322 1.2676 0.9042
2.7313 1.2757 0.9007
2.7302 1.2838 0.8972
2.7289 1.2919 0.8938
2.7273 1.3 0.8903
2.725 1.3081 0.8869
2.8155 1.1058 0.8928
2.8154 1.11 0.8853
2.8151 1.1142 0.8778
2.8148 1.1184 0.8702
2.8145 1.1227 0.8626
2.814 1.1269 0.8551
2.8136 1.1312 0.8474
2.8131 1.1354 0.8398
2.8125 1.1397 0.8322
2.812 1.144 0.8245
2.8114 1.1483 0.8169
2.8108 1.1526 0.8092
2.8101 1.1569 0.8015
2.8094 1.1612 0.7938
2.8086 1.1655 0.7861
2.8077 1.1698 0.7784
2.8066 1.1741 0.7707
2.8053 1.1784 0.763
2.8037 1.1827 0.7553
2.8014 1.187 0.7476
2.8918 1.0332 0.8751
2.8917 1.0319 0.8666
2.8915 1.0307 0.8581
2.8912 1.0294 0.8495
2.8908 1.0281 0.8409
2.8904 1.0268 0.8323
2.8899 1.0255 0.8237
2.8894 1.0243 0.8151
2.8889 1.023 0.8064
2.8884 1.0217 0.7977
2.8878 1.0204 0.7891
2.8871 1.0191 0.7803
2.8865 1.0178 0.7716
2.8858 1.0165 0.7629
2.8849 1.0152 0.7542
2.884 1.0139 0.7454
2.883 1.0126 0.7367
2.8817 1.0113 0.728
2.8801 1.01 0.7193
2.8778 1.0087 0.7106
2.9682 0.9676 0.9046
2.9681 0.9614 0.8986
2.9679 0.9552 0.8927
2.9676 0.9489 0.8867
2.9672 0.9427 0.8806
2.9668 0.9364 0.8746
2.9663 0.9301 0.8686
2.9658 0.9238 0.8625
2.9653 0.9175 0.8565
2.9647 0.9112 0.8504
2.9641 0.9049 0.8443
2.9635 0.8985 0.8382
2.9629 0.8922 0.8321
2.9621 0.8858 0.826
2.9613 0.8794 0.8199
2.9604 0.8731 0.8138
2.9593 0.8667 0.8077
2.9581 0.8604 0.8016
2.9564 0.854 0.7955
2.9542 0.8477 0.7894
3.0446 0.9364 0.9671
3.0445 0.9279 0.9662
3.0443 0.9193 0.9652
3.044 0.9107 0.9643
3.0436 0.9021 0.9634
3.0431 0.8934 0.9625
3.0427 0.8848 0.9615
3.0422 0.8761 0.9606
3.0417 0.8674 0.9596
3.0411 0.8587 0.9587
3.0405 0.8499 0.9578
3.0399 0.8412 0.9568
3.0392 0.8324 0.9559
3.0385 0.8236 0.9549
3.0377 0.8149 0.954
3.0368 0.8061 0.953
3.0357 0.7973 0.9521
3.0344 0.7885 0.9511
3.0328 0.7798 0.9502
3.0305 0.771 0.9493
3.1209 0.9526 1.0347
3.1209 0.9453 1.0392
3.1206 0.9379 1.0437
3.1203 0.9306 1.0483
3.1199 0.9232 1.0528
3.1195 0.9158 1.0573
3.1191 0.9083 1.0619
3.1186 0.9009 1.0665
3.118 0.8934 1.071
3.1175 0.886 1.0756
3.1169 0.8785 1.0802
3.1163 0.871 1.0848
3.1156 0.8635 1.0894
3.1149 0.856 1.094
3.1141 0.8484 1.0987
3.1132 0.8409 1.1033
3.1121 0.8334 1.1079
3.1108 0.8259 1.1125
3.1092 0.8184 1.1171
3.1069 0.8109 1.1217
3.1973 1.0095 1.0774
3.1972 1.0064 1.0854
3.197 1.0034 1.0935
3.1967 1.0003 1.1016
3.1963 0.9972 1.1097
3.1959 0.9941 1.1178
3.1954 0.9911 1.126
3.1949 0.988 1.1342
3.1944 0.9849 1.1423
3.1938 0.9817 1.1505
3.1933 0.9786 1.1588
3.1926 0.9755 1.167
3.192 0.9724 1.1752
3.1912 0.9693 1.1835
3.1904 0.9661 1.1917
3.1895 0.963 1.2
3.1885 0.9599 1.2082
3.1872 0.9567 1.2165
3.1855 0.9536 1.2247
3.1833 0.9505 1.2329
3.2737 1.0832 1.0755
3.2736 1.0858 1.0837
3.2734 1.0883 1.092
3.2731 1.0908 1.1003
3.2727 1.0933 1.1086
3.2723 1.0958 1.1169
3.2718 1.0984 1.1252
3.2713 1.1009 1.1336
3.2708 1.1035 1.1419
3.2702 1.106 1.1503
3.2696 1.1086 1.1587
3.269 1.1111 1.1672
3.2683 1.1137 1.1756
3.2676 1.1163 1.184
3.2668 1.1188 1.1925
3.2659 1.1214 1.2009
3.2648 1.124 1.2094
3.2635 1.1265 1.2178
3.2619 1.1291 1.2262
3.2597 1.1317 1.2346
3.3501 1.1431 1.028
3.35 1.1501 1.033
3.3498 1.1572 1.038
3.3494 1.1642 1.043
3.3491 1.1713 1.048
3.3486 1.1784 1.053
3.3482 1.1855 1.0581
3.3477 1.1926 1.0631
3.3471 1.1998 1.0682
3.3466 1.2069 1.0733
3.346 1.2141 1.0784
3.3454 1.2212 1.0835
3.3447 1.2284 1.0886
3.344 1.2356 1.0937
3.3432 1.2428 1.0988
3.3423 1.25 1.1039
3.3412 1.2572 1.109
3.3399 1.2644 1.1141
3.3383 1.2716 1.1192
3.336 1.2787 1.1243
3.4264 1.1641 0.9529
3.4263 1.1727 0.9525
3.4261 1.1814 0.9522
3.4258 1.19 0.9518
3.4254 1.1987 0.9515
3.425 1.2074 0.9511
3.4245 1.2161 0.9508
3.424 1.2248 0.9504
3.4235 1.2335 0.9501
3.423 1.2423 0.9497
3.4224 1.2511 0.9494
3.4218 1.2599 0.949
3.4211 1.2687 0.9486
3.4204 1.2775 0.9483
3.4196 1.2863 0.9479
3.4186 1.2951 0.9476
3.4176 1.3039 0.9472
3.4163 1.3128 0.9469
3.4147 1.3216 0.9465
3.4124 1.3303 0.9462
3.5028 1.1375 0.8797
3.5027 1.1441 0.8741
3.5025 1.1507 0.8686
3.5022 1.1573 0.863
3.5018 1.164 0.8574
3.5014 1.1707 0.8518
3.5009 1.1773 0.8462
3.5004 1.184 0.8406
3.4999 1.1907 0.835
3.4993 1.1974 0.8294
3.4988 1.2042 0.8237
3.4981 1.2109 0.8181
3.4975 1.2177 0.8124
3.4967 1.2244 0.8067
3.4959 1.2312 0.8011
3.495 1.2379 0.7954
3.494 1.2447 0.7897
3.4927 1.2515 0.784
3.491 1.2582 0.7784
3.4888 1.2649 0.7727
3.5792 1.0744 0.8371
3.5791 1.0762 0.8287
3.5789 1.078 0.8202
3.5786 1.0799 0.8118
3.5782 1.0817 0.8033
3.5778 1.0836 0.7948
3.5773 1.0854 0.7863
3.5768 1.0873 0.7778
3.5763 1.0892 0.7692
3.5757 1.091 0.7606
3.5751 1.0929 0.7521
3.5745 1.0948 0.7435
3.5738 1.0967 0.7349
3.5731 1.0985 0.7262
3.5723 1.1004 0.7176
3.5714 1.1023 0.709
3.5703 1.1042 0.7004
3.569 1.1061 0.6918
3.5674 1.1079 0.6832
3.5652 1.1098 0.6746
3.6556 1.001 0.8411
3.6555 0.9973 0.8333
3.6552 0.9936 0.8255
3.6549 0.9899 0.8177
3.6546 0.9862 0.8099
3.6541 0.9825 0.802
3.6537 0.9788 0.7941
3.6532 0.975 0.7862
3.6526 0.9713 0.7783
3.6521 0.9675 0.7704
3.6515 0.9637 0.7625
3.6509 0.96 0.7545
3.6502 0.9562 0.7466
3.6495 0.9524 0.7386
3.6487 0.9486 0.7306
3.6478 0.9448 0.7227
3.6467 0.9411 0.7147
3.6454 0.9373 0.7067
3.6438 0.9335 0.6988
3.6415 0.9297 0.6908
3.7319 0.9482 0.8882
3.7318 0.9405 0.8843
3.7316 0.9328 0.8804
3.7313 0.9251 0.8765
3.7309 0.9173 0.8725
3.7305 0.9096 0.8686
3.73 0.9018 0.8647
3.7295 0.894 0.8607
3.729 0.8862 0.8567
3.7285 0.8784 0.8528
3.7279 0.8706 0.8488
3.7273 0.8627 0.8448
3.7266 0.8549 0.8408
3.7259 0.847 0.8368
3.7251 0.8391 0.8328
3.7241 0.8313 0.8288
3.7231 0.8234 0.8248
3.7218 0.8155 0.8208
3.7202 0.8077 0.8169
3.7179 0.7998 0.8129
3.8083 0.9378 0.9569
3.8082 0.9293 0.9585
3.808 0.9208 0.9601
3.8077 0.9123 0.9617
3.8073 0.9038 0.9633
3.8069 0.8953 0.965
3.8064 0.8867 0.9666
3.8059 0.8781 0.9682
3.8054 0.8695 0.9699
3.8048 0.8609 0.9715
3.8042 0.8523 0.9731
3.8036 0.8436 0.9748
3.803 0.835 0.9764
3.8022 0.8263 0.9781
3.8014 0.8177 0.9797
3.8005 0.809 0.9814
3.7994 0.8003 0.983
3.7982 0.7916 0.9847
3.7965 0.783 0.9863
3.7943 0.7744 0.988
3.8847 0.9742 1.0167
3.8846 0.9685 1.0231
3.8844 0.9628 1.0296
3.8841 0.9571 1.0361
3.8837 0.9513 1.0425
3.8833 0.9455 1.0491
3.8828 0.9398 1.0556
3.8823 0.934 1.0621
3.8818 0.9282 1.0687
3.8812 0.9224 1.0752
3.8806 0.9165 1.0818
3.88 0.9107 1.0884
3.8793 0.9049 1.095
3.8786 0.899 1.1016
3.8778 0.8932 1.1082
3.8769 0.8873 1.1148
3.8758 0.8814 1.1214
3.8745 0.8756 1.128
3.8729 0.8698 1.1346
3.8707 0.8639 1.1412
3.9611 1.0423 1.0408
3.961 1.0418 1.0494
3.9607 1.0412 1.058
3.9604 1.0406 1.0666
3.9601 1.04 1.0753
3.9596 1.0394 1.0839
3.9592 1.0388 1.0926
3.9587 1.0383 1.1014
3.9581 1.0377 1.1101
3.9576 1.0371 1.1188
3.957 1.0365 1.1276
3.9564 1.0359 1.1364
3.9557 1.0353 1.1452
3.955 1.0347 1.154
3.9542 1.0341 1.1628
3.9533 1.0335 1.1716
3.9522 1.0329 1.1804
3.9509 1.0323 1.1892
3.9493 1.0317 1.198
3.947 1.0312 1.2067
4.0374 1.1136 1.0173
4.0373 1.1184 1.0244
4.0371 1.1232 1.0316
4.0368 1.128 1.0388
4.0364 1.1329 1.046
4.036 1.1377 1.0532
4.0355 1.1426 1.0605
4.035 1.1474 1.0677
4.0345 1.1523 1.075
4.034 1.1572 1.0823
4.0334 1.1621 1.0896
4.0328 1.167 1.0969
4.0321 1.1719 1.1042
4.0314 1.1768 1.1115
4.0306 1.1817 1.1189
4.0296 1.1866 1.1262
4.0286 1.1915 1.1335
4.0273 1.1965 1.1408
4.0257 1.2014 1.1482
4.0234 1.2063 1.1555
4.1138 1.1583 0.9542
4.1137 1.1665 0.9569
4.1135 1.1747 0.9597
4.1132 1.1829 0.9624
4.1128 1.1912 0.9652
4.1124 1.1994 0.9679
4.1119 1.2077 0.9707
4.1114 1.216 0.9735
4.1109 1.2243 0.9762
4.1103 1.2326 0.979
4.1097 1.2409 0.9818
4.1091 1.2493 0.9846
4.1085 1.2576 0.9874
4.1077 1.266 0.9902
4.1069 1.2743 0.993
4.106 1.2827 0.9958
4.1049 1.2911 0.9985
4.1037 1.2995 1.0013
4.102 1.3078 1.0041
4.0998 1.3161 1.0069
4.1902 1.1579 0.876
4.1901 1.166 0.8732
4.1899 1.1742 0.8704
4.1896 1.1823 0.8675
4.1892 1.1905 0.8647
4.1888 1.1987 0.8618
4.1883 1.207 0.8589
4.1878 1.2152 0.856
4.1873 1.2235 0.8532
4.1867 1.2318 0.8503
4.1861 1.2401 0.8474
4.1855 1.2484 0.8445
4.1848 1.2567 0.8416
4.1841 1.265 0.8387
4.1833 1.2733 0.8358
4.1824 1.2817 0.8329
4.1813 1.29 0.83
4.18 1.2983 0.8271
4.1784 1.3066 0.8242
4.1761 1.315 0.8213
[...]
CELL_DATA 2755
SCALARS circulation float 1
LOOKUP_TABLE default
-0.266708738548982
-0.253027693962705
-0.23402511415603078
-0.21139869643745024
-0.18652957195491485
-0.16049326500117278
-0.1341292095276189
-0.10810344415277465
-0.08298027395177017
-0.059295686375038584
-0.03760713259701329
-0.01853236878649353
-0.0028056518680194416
0.008635879604544566
0.01465921652469826
0.014214059933410043
0.00713979765125428
-0.0037327045830230533
-0.009091087789131203
-0.266708738548982
-0.253027693962705
-0.23402511415603078
-0.21139869643745024
-0.18652957195491485
-0.16049326500117278
-0.1341292095276189
-0.10810344415277465
-0.08298027395177017
-0.059295686375038584
-0.03760713259701329
-0.01853236878649353
-0.0028056518680194416
0.008635879604544566
0.01465921652469826
0.014214059933410043
0.00713979765125428
-0.0037327045830230533
-0.009091087789131203
-0.266708738548982
-0.253027693962705
-0.23402511415603078
-0.21139869643745024
-0.18652957195491485
-0.16049326500117278
-0.1341292095276189
-0.10810344415277465
-0.08298027395177017
-0.059295686375038584
-0.03760713259701329
-0.01853236878649353
-0.0028056518680194416
0.008635879604544566
0.01465921652469826
0.014214059933410043
0.00713979765125428
-0.0037327045830230533
-0.009091087789131203
-0.266708738548982
-0.253027693962705
-0.23402511415603078
-0.21139869643745024
-0.18652957195491485
-0.16049326500117278
-0.1341292095276189
-0.10810344415277465
-0.08298027395177017
-0.059295686375038584
-0.03760713259701329
-0.01853236878649353
-0.0028056518680194416
0.008635879604544566
0.01465921652469826
0.014214059933410043
0.00713979765125428
-0.0037327045830230533
-0.009091087789131203
-0.266708738548982
-0.253027693962705
-0.23402511415603078
-0.21139869643745024
-0.18652957195491485
-0.16049326500117278
-0.1341292095276189
-0.10810344415277465
-0.08298027395177017
-0.059295686375038584
-0.03760713259701329
-0.01853236878649353
-0.0028056518680194416
0.008635879604544566
0.01465921652469826
0.014214059933410043
0.00713979765125428
-0.0037327045830230533
-0.009091087789131203
-0.266708738548982
-0.253027693962705
-0.23402511415603078
-0.21139869643745024
-0.18652957195491485
-0.16049326500117278
-0.1341292095276189
-0.10810344415277465
-0.08298027395177017
-0.059295686375038584
-0.03760713259701329
-0.01853236878649353
-0.0028056518680194416
0.008635879604544566
0.01465921652469826
0.014214059933410043
0.00713979765125428
-0.0037327045830230533
-0.009091087789131203
-0.266708738548982
-0.253027693962705
-0.23402511415603078
-0.21139869643745024
-0.18652957195491485
-0.16049326500117278
-0.1341292095276189
-0.10810344415277465
-0.08298027395177017
-0.059295686375038584
-0.03760713259701329
-0.01853236878649353
-0.0028056518680194416
0.008635879604544566
0.01465921652469826
0.014214059933410043
0.00713979765125428
-0.0037327045830230533
-0.009091087789131203
-0.266708738548982
-0.253027693962705
-0.23402511415603078
-0.21139869643745024
-0.18652957195491485
-0.16049326500117278
-0.1341292095276189
-0.10810344415277465
-0.08298027395177017
-0.059295686375038584
-0.03760713259701329
-0.01853236878649353
-0.0028056518680194416
0.008635879604544566
0.01465921652469826
0.014214059933410043
0.00713979765125428
-0.0037327045830230533
-0.009091087789131203
-0.266708738548982
-0.253027693962705
-0.23402511415603078
-0.21139869643745024
-0.18652957195491485
-0.16049326500117278
-0.1341292095276189
-0.10810344415277465
-0.08298027395177017
-0.059295686375038584
-0.03760713259701329
-0.01853236878649353
-0.0028056518680194416
0.008635879604544566
0.01465921652469826
0.014214059933410043
0.00713979765125428
-0.0037327045830230533
-0.009091087789131203
-0.266708738548982
-0.253027693962705
-0.23402511415603078
-0.21139869643745024
-0.18652957195491485
-0.16049326500117278
-0.1341292095276189
-0.10810344415277465
-0.08298027395177017
-0.059295686375038584
-0.03760713259701329
-0.01853236878649353
-0.0028056518680194416
0.008635879604544566
0.01465921652469826
0.014214059933410043
0.00713979765125428
-0.0037327045830230533
-0.009091087789131203
-0.266708738548982
-0.253027693962705
-0.23402511415603078
-0.21139869643745024
-0.18652957195491485
-0.16049326500117278
-0.1341292095276189
-0.10810344415277465
-0.08298027395177017
-0.059295686375038584
-0.03760713259701329
-0.01853236878649353
-0.0028056518680194416
0.008635879604544566
0.01465921652469826
0.014214059933410043
0.00713979765125428
-0.0037327045830230533
-0.009091087789131203
-0.266708738548982
-0.253027693962705
-0.23402511415603078
-0.21139869643745024
-0.18652957195491485
-0.16049326500117278
-0.1341292095276189
-0.10810344415277465
-0.08298027395177017
-0.059295686375038584
-0.03760713259701329
-0.01853236878649353
-0.0028056518680194416
0.008635879604544566
0.01465921652469826
0.014214059933410043
0.00713979765125428
-0.0037327045830230533
-0.009091087789131203
-0.266708738548982
-0.253027693962705
-0.23402511415603078
-0.21139869643745024
-0.18652957195491485
-0.16049326500117278
-0.1341292095276189
-0.10810344415277465
-0.08298027395177017
-0.059295686375038584
-0.03760713259701329
-0.01853236878649353
-0.0028056518680194416
0.008635879604544566
0.01465921652469826
0.014214059933410043
0.00713979765125428
-0.0037327045830230533
-0.009091087789131203
-0.266708738548982
-0.253027693962705
-0.23402511415603078
-0.21139869643745024
-0.18652957195491485
-0.16049326500117278
-0.1341292095276189
-0.10810344415277465
-0.08298027395177017
-0.059295686375038584
-0.03760713259701329
-0.01853236878649353
-0.0028056518680194416
0.008635879604544566
0.01465921652469826
0.014214059933410043
0.00713979765125428
-0.0037327045830230533
-0.009091087789131203
-0.266708738548982
-0.253027693962705
-0.23402511415603078
-0.21139869643745024
-0.18652957195491485
-0.16049326500117278
-0.1341292095276189
-0.10810344415277465
-0.08298027395177017
-0.059295686375038584
-0.03760713259701329
-0.01853236878649353
-0.0028056518680194416
0.008635879604544566
0.01465921652469826
0.014214059933410043
0.00713979765125428
-0.0037327045830230533
-0.009091087789131203
-0.266708738548982
-0.253027693962705
-0.23402511415603078
-0.21139869643745024
-0.18652957195491485
-0.16049326500117278
-0.1341292095276189
-0.10810344415277465
-0.08298027395177017
-0.059295686375038584
-0.03760713259701329
-0.01853236878649353
-0.0028056518680194416
0.008635879604544566
0.01465921652469826
0.014214059933410043
0.00713979765125428
-0.0037327045830230533
-0.009091087789131203
-0.266708738548982
-0.253027693962705
-0.23402511415603078
-0.21139869643745024
-0.18652957195491485
-0.16049326500117278
-0.1341292095276189
-0.10810344415277465
-0.08298027395177017
-0.059295686375038584
-0.03760713259701329
-0.01853236878649353
-0.0028056518680194416
0.008635879604544566
0.01465921652469826
0.014214059933410043
0.00713979765125428
-0.0037327045830230533
-0.009091087789131203
-0.266708738548982
-0.253027693962705
-0.23402511415603078
-0.21139869643745024
-0.18652957195491485
-0.16049326500117278
-0.1341292095276189
-0.10810344415277465
-0.08298027395177017
-0.059295686375038584
-0.03760713259701329
-0.01853236878649353
-0.0028056518680194416
0.008635879604544566
0.01465921652469826
0.014214059933410043
0.00713979765125428
-0.0037327045830230533
-0.009091087789131203
-0.266708738548982
-0.253027693962705
-0.23402511415603078
-0.21139869643745024
-0.18652957195491485
-0.16049326500117278
-0.1341292095276189
-0.10810344415277465
-0.08298027395177017
-0.059295686375038584
-0.03760713259701329
-0.01853236878649353
-0.0028056518680194416
0.008635879604544566
0.01465921652469826
0.014214059933410043
0.00713979765125428
-0.0037327045830230533
-0.009091087789131203
-0.266708738548982
-0.253027693962705
-0.23402511415603078
-0.21139869643745024
-0.18652957195491485
-0.16049326500117278
-0.1341292095276189
-0.10810344415277465
-0.08298027395177017
-0.059295686375038584
-0.03760713259701329
-0.01853236878649353
-0.0028056518680194416
0.008635879604544566
0.01465921652469826
0.014214059933410043
0.00713979765125428
-0.0037327045830230533
-0.009091087789131203
-0.266708738548982
-0.253027693962705
-0.23402511415603078
-0.21139869643745024
-0.18652957195491485
-0.16049326500117278
-0.1341292095276189
-0.10810344415277465
-0.08298027395177017
-0.059295686375038584
-0.03760713259701329
-0.01853236878649353
-0.0028056518680194416
0.008635879604544566
0.01465921652469826
0.014214059933410043
0.00713979765125428
-0.0037327045830230533
-0.009091087789131203
-0.266708738548982
-0.253027693962705
-0.23402511415603078
-0.21139869643745024
-0.18652957195491485
-0.16049326500117278
-0.1341292095276189
-0.10810344415277465
-0.08298027395177017
-0.059295686375038584
-0.03760713259701329
-0.01853236878649353
-0.0028056518680194416
0.008635879604544566
0.01465921652469826
0.014214059933410043
0.00713979765125428
-0.0037327045830230533
-0.009091087789131203
-0.266708738548982
-0.253027693962705
-0.23402511415603078
-0.21139869643745024
-0.18652957195491485
-0.16049326500117278
-0.1341292095276189
-0.10810344415277465
-0.08298027395177017
-0.059295686375038584
-0.03760713259701329
-0.01853236878649353
-0.0028056518680194416
0.008635879604544566
0.01465921652469826
0.014214059933410043
0.00713979765125428
-0.0037327045830230533
-0.009091087789131203
-0.266708738548982
-0.253027693962705
-0.23402511415603078
-0.21139869643745024
-0.18652957195491485
-0.16049326500117278
-0.1341292095276189
-0.10810344415277465
-0.08298027395177017
-0.059295686375038584
-0.03760713259701329
-0.01853236878649353
-0.0028056518680194416
0.008635879604544566
0.01465921652469826
0.014214059933410043
0.00713979765125428
-0.0037327045830230533
-0.009091087789131203
-0.266708738548982
-0.253027693962705
-0.23402511415603078
-0.21139869643745024
-0.18652957195491485
-0.16049326500117278
-0.1341292095276189
-0.10810344415277465
-0.08298027395177017
-0.059295686375038584
-0.03760713259701329
-0.01853236878649353
-0.0028056518680194416
0.008635879604544566
0.01465921652469826
0.014214059933410043
0.00713979765125428
-0.0037327045830230533
-0.009091087789131203
-0.266708738548982
-0.253027693962705
-0.23402511415603078
-0.21139869643745024
-0.18652957195491485
-0.16049326500117278
-0.1341292095276189
-0.10810344415277465
-0.08298027395177017
-0.059295686375038584
-0.03760713259701329
-0.01853236878649353
-0.0028056518680194416
0.008635879604544566
0.01465921652469826
0.014214059933410043
0.00713979765125428
-0.0037327045830230533
-0.009091087789131203
-0.266708738548982
-0.253027693962705
-0.23402511415603078
-0.21139869643745024
-0.18652957195491485
-0.16049326500117278
-0.1341292095276189
-0.10810344415277465
-0.08298027395177017
-0.059295686375038584
-0.03760713259701329
-0.01853236878649353
-0.0028056518680194416
0.008635879604544566
0.01465921652469826
0.014214059933410043
0.00713979765125428
-0.0037327045830230533
-0.009091087789131203
-0.266708738548982
-0.253027693962705
-0.23402511415603078
-0.21139869643745024
-0.18652957195491485
-0.16049326500117278
-0.1341292095276189
-0.10810344415277465
-0.08298027395177017
-0.059295686375038584
-0.03760713259701329
-0.01853236878649353
-0.0028056518680194416
0.008635879604544566
0.01465921652469826
0.014214059933410043
0.00713979765125428
-0.0037327045830230533
-0.009091087789131203
-0.266708738548982
-0.253027693962705
-0.23402511415603078
-0.21139869643745024
-0.18652957195491485
-0.16049326500117278
-0.1341292095276189
-0.10810344415277465
-0.08298027395177017
-0.059295686375038584
-0.03760713259701329
-0.01853236878649353
-0.0028056518680194416
0.008635879604544566
0.01465921652469826
0.014214059933410043
0.00713979765125428
-0.0037327045830230533
-0.009091087789131203
-0.266708738548982
-0.253027693962705
-0.23402511415603078
-0.21139869643745024
-0.18652957195491485
-0.16049326500117278
-0.1341292095276189
-0.10810344415277465
-0.08298027395177017
-0.059295686375038584
-0.03760713259701329
-0.01853236878649353
-0.0028056518680194416
0.008635879604544566
0.01465921652469826
0.014214059933410043
0.00713979765125428
-0.0037327045830230533
-0.009091087789131203
-0.266708738548982
-0.253027693962705
-0.23402511415603078
-0.21139869643745024
-0.18652957195491485
-0.16049326500117278
-0.1341292095276189
-0.10810344415277465
-0.08298027395177017
-0.059295686375038584
-0.03760713259701329
-0.01853236878649353
-0.0028056518680194416
0.008635879604544566
0.01465921652469826
0.014214059933410043
0.00713979765125428
-0.0037327045830230533
-0.009091087789131203
-0.266708738548982
-0.253027693962705
-0.23402511415603078
-0.21139869643745024
-0.18652957195491485
-0.16049326500117278
-0.1341292095276189
-0.10810344415277465
-0.08298027395177017
-0.059295686375038584
-0.03760713259701329
-0.01853236878649353
-0.0028056518680194416
0.008635879604544566
0.01465921652469826
0.014214059933410043
0.00713979765125428
-0.0037327045830230533
-0.009091087789131203
-0.266708738548982
-0.253027693962705
-0.23402511415603078
-0.21139869643745024
-0.18652957195491485
-0.16049326500117278
-0.1341292095276189
-0.10810344415277465
-0.08298027395177017
-0.059295686375038584
-0.03760713259701329
-0.01853236878649353
-0.0028056518680194416
0.008635879604544566
0.01465921652469826
0.014214059933410043
0.00713979765125428
-0.0037327045830230533
-0.009091087789131203
-0.266708738548982
-0.253027693962705
-0.23402511415603078
-0.21139869643745024
-0.18652957195491485
-0.16049326500117278
-0.1341292095276189
-0.10810344415277465
-0.08298027395177017
-0.059295686375038584
-0.03760713259701329
-0.01853236878649353
-0.0028056518680194416
0.008635879604544566
0.01465921652469826
0.014214059933410043
0.00713979765125428
-0.0037327045830230533
-0.009091087789131203
-0.266708738548982
-0.253027693962705
-0.23402511415603078
-0.21139869643745024
-0.18652957195491485
-0.16049326500117278
-0.1341292095276189
-0.10810344415277465
-0.08298027395177017
-0.059295686375038584
-0.03760713259701329
-0.01853236878649353
-0.0028056518680194416
0.008635879604544566
0.01465921652469826
0.014214059933410043
0.00713979765125428
-0.0037327045830230533
-0.009091087789131203
-0.266708738548982
-0.253027693962705
-0.23402511415603078
-0.21139869643745024
-0.18652957195491485
-0.16049326500117278
-0.1341292095276189
-0.10810344415277465
-0.08298027395177017
-0.059295686375038584
-0.03760713259701329
-0.01853236878649353
-0.0028056518680194416
0.008635879604544566
0.01465921652469826
0.014214059933410043
0.00713979765125428
-0.0037327045830230533
-0.009091087789131203
-0.266708738548982
-0.253027693962705
-0.23402511415603078
-0.21139869643745024
-0.18652957195491485
-0.16049326500117278
-0.1341292095276189
-0.10810344415277465
-0.08298027395177017
-0.059295686375038584
-0.03760713259701329
-0.01853236878649353
-0.0028056518680194416
0.008635879604544566
0.01465921652469826
0.014214059933410043
0.00713979765125428
-0.0037327045830230533
-0.009091087789131203
-0.266708738548982
-0.253027693962705
-0.23402511415603078
-0.21139869643745024
-0.18652957195491485
-0.16049326500117278
-0.1341292095276189
-0.10810344415277465
-0.08298027395177017
-0.059295686375038584
-0.03760713259701329
-0.01853236878649353
-0.0028056518680194416
0.008635879604544566
0.01465921652469826
0.014214059933410043
0.00713979765125428
-0.0037327045830230533
-0.009091087789131203
-0.266708738548982
-0.253027693962705
-0.23402511415603078
-0.21139869643745024
-0.18652957195491485
-0.16049326500117278
-0.1341292095276189
-0.10810344415277465
-0.08298027395177017
-0.059295686375038584
-0.03760713259701329
-0.01853236878649353
-0.0028056518680194416
0.008635879604544566
0.01465921652469826
0.014214059933410043
0.00713979765125428
-0.0037327045830230533
-0.009091087789131203
-0.266708738548982
-0.253027693962705
-0.23402511415603078
-0.21139869643745024
-0.18652957195491485
-0.16049326500117278
-0.1341292095276189
-0.10810344415277465
-0.08298027395177017
-0.059295686375038584
-0.03760713259701329
-0.01853236878649353
-0.0028056518680194416
0.008635879604544566
0.01465921652469826
0.014214059933410043
0.00713979765125428
-0.0037327045830230533
-0.009091087789131203
-0.266708738548982
-0.253027693962705
-0.23402511415603078
-0.21139869643745024
-0.18652957195491485
-0.16049326500117278
-0.1341292095276189
-0.10810344415277465
-0.08298027395177017
-0.059295686375038584
-0.03760713259701329
-0.01853236878649353
-0.0028056518680194416
0.008635879604544566
0.01465921652469826
0.014214059933410043
0.00713979765125428
-0.0037327045830230533
-0.009091087789131203
-0.266708738548982
-0.253027693962705
-0.23402511415603078
-0.21139869643745024
-0.18652957195491485
-0.16049326500117278
-0.1341292095276189
-0.10810344415277465
-0.08298027395177017
-0.059295686375038584
-0.03760713259701329
-0.01853236878649353
-0.0028056518680194416
0.008635879604544566
0.01465921652469826
0.014214059933410043
0.00713979765125428
-0.0037327045830230533
-0.009091087789131203
-0.266708738548982
-0.253027693962705
-0.23402511415603078
-0.21139869643745024
-0.18652957195491485
-0.16049326500117278
-0.1341292095276189
-0.10810344415277465
-0.08298027395177017
-0.059295686375038584
-0.03760713259701329
-0.01853236878649353
-0.0028056518680194416
0.008635879604544566
0.01465921652469826
0.014214059933410043
0.00713979765125428
-0.0037327045830230533
-0.009091087789131203
-0.266708738548982
-0.253027693962705
-0.23402511415603078
-0.21139869643745024
-0.18652957195491485
-0.16049326500117278
-0.1341292095276189
-0.10810344415277465
-0.08298027395177017
-0.059295686375038584
-0.03760713259701329
-0.01853236878649353
-0.0028056518680194416
0.008635879604544566
0.01465921652469826
0.014214059933410043
0.00713979765125428
-0.0037327045830230533
-0.009091087789131203
-0.266708738548982
-0.253027693962705
-0.23402511415603078
-0.21139869643745024
-0.18652957195491485
-0.16049326500117278
-0.1341292095276189
-0.10810344415277465
-0.08298027395177017
-0.059295686375038584
-0.03760713259701329
-0.01853236878649353
-0.0028056518680194416
0.008635879604544566
0.01465921652469826
0.014214059933410043
0.00713979765125428
-0.0037327045830230533
-0.009091087789131203
-0.266708738548982
-0.253027693962705
-0.23402511415603078
-0.21139869643745024
-0.18652957195491485
-0.16049326500117278
-0.1341292095276189
-0.10810344415277465
-0.08298027395177017
-0.059295686375038584
-0.03760713259701329
-0.01853236878649353
-0.0028056518680194416
0.008635879604544566
0.01465921652469826
0.014214059933410043
0.00713979765125428
-0.0037327045830230533
-0.009091087789131203
-0.266708738548982
-0.253027693962705
-0.23402511415603078
-0.21139869643745024
-0.18652957195491485
-0.16049326500117278
-0.1341292095276189
-0.10810344415277465
-0.08298027395177017
-0.059295686375038584
-0.03760713259701329
-0.01853236878649353
-0.0028056518680194416
0.008635879604544566
0.01465921652469826
0.014214059933410043
0.00713979765125428
-0.0037327045830230533
-0.009091087789131203
-0.266708738548982
-0.253027693962705
-0.23402511415603078
-0.21139869643745024
-0.18652957195491485
-0.16049326500117278
-0.1341292095276189
-0.10810344415277465
-0.08298027395177017
-0.059295686375038584
-0.03760713259701329
-0.01853236878649353
-0.0028056518680194416
0.008635879604544566
0.01465921652469826
0.014214059933410043
0.00713979765125428
-0.0037327045830230533
-0.009091087789131203
-0.266708738548982
-0.253027693962705
-0.23402511415603078
-0.21139869643745024
-0.18652957195491485
-0.16049326500117278
-0.1341292095276189
-0.10810344415277465
-0.08298027395177017
-0.059295686375038584
-0.03760713259701329
-0.01853236878649353
-0.0028056518680194416
0.008635879604544566
0.01465921652469826
0.014214059933410043
0.00713979765125428
-0.0037327045830230533
-0.009091087789131203
-0.266708738548982
-0.253027693962705
-0.23402511415603078
-0.21139869643745024
-0.18652957195491485
-0.16049326500117278
-0.1341292095276189
-0.10810344415277465
-0.08298027395177017
-0.059295686375038584
-0.03760713259701329
-0.01853236878649353
-0.0028056518680194416
0.008635879604544566
0.01465921652469826
0.014214059933410043
0.00713979765125428
-0.0037327045830230533
-0.009091087789131203
-0.266708738548982