# vtk DataFile Version 4.0
SUAVE Model of PROWIM Propeller Wake 
ASCII
DATASET UNSTRUCTURED_GRID

POINTS 3000 float
2.5901 -4.9474 1.1162
2.5969 -4.9392 1.1479
2.6041 -4.9311 1.1797
2.6111 -4.9228 1.2117
2.6176 -4.9146 1.2438
2.6232 -4.9062 1.2762
2.6277 -4.8979 1.3088
2.6312 -4.8894 1.3416
2.6337 -4.8809 1.3746
2.6351 -4.8724 1.4077
2.6356 -4.8638 1.4411
2.6352 -4.8552 1.4746
2.634 -4.8466 1.5082
2.632 -4.8379 1.542
2.6293 -4.8292 1.5757
2.6257 -4.8205 1.6096
2.6214 -4.8118 1.6435
2.616 -4.803 1.6774
2.6093 -4.7943 1.7112
2.6001 -4.7856 1.745
2.5065 -4.9758 1.1242
2.5134 -4.9758 1.1569
2.5205 -4.9758 1.1897
2.5276 -4.9758 1.2228
2.534 -4.9758 1.256
2.5396 -4.9758 1.2894
2.5442 -4.9758 1.323
2.5477 -4.9758 1.3569
2.5501 -4.9758 1.391
2.5515 -4.9758 1.4252
2.552 -4.9758 1.4597
2.5516 -4.9758 1.4943
2.5504 -4.9758 1.529
2.5484 -4.9758 1.5639
2.5457 -4.9758 1.5988
2.5422 -4.9758 1.6337
2.5378 -4.9758 1.6687
2.5325 -4.9758 1.7037
2.5257 -4.9758 1.7387
2.5165 -4.9758 1.7736
2.5901 -4.9474 1.1162
2.5969 -4.9392 1.1479
2.6041 -4.9311 1.1797
2.6111 -4.9228 1.2117
2.6176 -4.9146 1.2438
2.6232 -4.9062 1.2762
2.6277 -4.8979 1.3088
2.6312 -4.8894 1.3416
2.6337 -4.8809 1.3746
2.6351 -4.8724 1.4077
2.6356 -4.8638 1.4411
2.6352 -4.8552 1.4746
2.634 -4.8466 1.5082
2.632 -4.8379 1.542
2.6293 -4.8292 1.5757
2.6257 -4.8205 1.6096
2.6214 -4.8118 1.6435
2.616 -4.803 1.6774
2.6093 -4.7943 1.7112
2.6001 -4.7856 1.745
2.6737 -4.9207 1.1013
2.6805 -4.905 1.1299
2.6877 -4.8891 1.1587
2.6947 -4.8732 1.1876
2.7011 -4.8572 1.2167
2.7067 -4.841 1.2459
2.7113 -4.8248 1.2754
2.7148 -4.8085 1.305
2.7173 -4.792 1.3349
2.7187 -4.7755 1.3649
2.7192 -4.7589 1.3951
2.7188 -4.7422 1.4254
2.7176 -4.7254 1.4558
2.7156 -4.7087 1.4862
2.7128 -4.6918 1.5168
2.7093 -4.675 1.5474
2.705 -4.6581 1.578
2.6996 -4.6412 1.6087
2.6929 -4.6243 1.6393
2.6837 -4.6075 1.6699
2.7572 -4.8975 1.08
2.7641 -4.8751 1.1038
2.7713 -4.8526 1.1277
2.7783 -4.83 1.1517
2.7847 -4.8072 1.1759
2.7903 -4.7843 1.2003
2.7949 -4.7613 1.2247
2.7984 -4.7381 1.2494
2.8008 -4.7147 1.2742
2.8023 -4.6913 1.2991
2.8028 -4.6676 1.3242
2.8024 -4.6439 1.3494
2.8011 -4.6202 1.3746
2.7992 -4.5963 1.4
2.7964 -4.5724 1.4253
2.7929 -4.5485 1.4508
2.7885 -4.5245 1.4762
2.7832 -4.5005 1.5017
2.7764 -4.4766 1.5271
2.7672 -4.4526 1.5525
2.8408 -4.8793 1.0535
2.8477 -4.8517 1.071
2.8548 -4.8239 1.0885
2.8619 -4.796 1.1062
2.8683 -4.768 1.1239
2.8739 -4.7397 1.1417
2.8785 -4.7113 1.1597
2.882 -4.6827 1.1778
2.8844 -4.6539 1.196
2.8858 -4.625 1.2143
2.8863 -4.5959 1.2327
2.8859 -4.5666 1.2512
2.8847 -4.5373 1.2697
2.8827 -4.5079 1.2883
2.88 -4.4785 1.3069
2.8765 -4.4489 1.3256
2.8721 -4.4194 1.3442
2.8668 -4.3898 1.3629
2.86 -4.3603 1.3816
2.8508 -4.3308 1.4002
2.9244 -4.8671 1.0232
2.9312 -4.836 1.0332
2.9384 -4.8048 1.0433
2.9454 -4.7734 1.0534
2.9519 -4.7418 1.0636
2.9575 -4.71 1.0738
2.962 -4.678 1.0842
2.9655 -4.6458 1.0945
2.968 -4.6134 1.105
2.9694 -4.5808 1.1155
2.9699 -4.5481 1.1261
2.9695 -4.5152 1.1367
2.9683 -4.4822 1.1473
2.9663 -4.4491 1.158
2.9636 -4.4159 1.1687
2.96 -4.3827 1.1794
2.9557 -4.3494 1.1901
2.9503 -4.3162 1.2008
2.9436 -4.2829 1.2116
2.9344 -4.2498 1.2223
3.008 -4.8618 0.9906
3.0148 -4.8292 0.9926
3.022 -4.7965 0.9945
3.029 -4.7635 0.9965
3.0354 -4.7304 0.9985
3.041 -4.697 1.0005
3.0456 -4.6635 1.0025
3.0491 -4.6297 1.0046
3.0516 -4.5958 1.0066
3.053 -4.5616 1.0087
3.0535 -4.5272 1.0108
3.0531 -4.4928 1.0128
3.0519 -4.4582 1.0149
3.0499 -4.4235 1.017
3.0471 -4.3887 1.0191
3.0436 -4.3539 1.0212
3.0393 -4.319 1.0233
3.0339 -4.2841 1.0254
3.0272 -4.2493 1.0275
3.018 -4.2145 1.0296
3.0915 -4.8637 0.9576
3.0984 -4.8316 0.9514
3.1056 -4.7994 0.9451
3.1126 -4.767 0.9388
3.119 -4.7344 0.9325
3.1246 -4.7017 0.9262
3.1292 -4.6687 0.9198
3.1327 -4.6355 0.9133
3.1351 -4.6021 0.9069
3.1366 -4.5685 0.9003
3.1371 -4.5347 0.8938
3.1367 -4.5008 0.8872
3.1354 -4.4668 0.8806
3.1335 -4.4327 0.874
3.1307 -4.3985 0.8674
3.1272 -4.3643 0.8607
3.1228 -4.33 0.8541
3.1175 -4.2957 0.8474
3.1107 -4.2615 0.8408
3.1015 -4.2273 0.8342
3.1751 -4.8727 0.926
3.182 -4.8432 0.912
3.1891 -4.8135 0.8979
3.1962 -4.7837 0.8837
3.2026 -4.7537 0.8695
3.2082 -4.7236 0.8552
3.2127 -4.6932 0.8408
3.2163 -4.6627 0.8263
3.2187 -4.632 0.8117
3.2201 -4.6011 0.797
3.2206 -4.57 0.7822
3.2202 -4.5388 0.7674
3.219 -4.5075 0.7526
3.217 -4.4762 0.7377
3.2143 -4.4447 0.7228
3.2108 -4.4133 0.7078
3.2064 -4.3817 0.6928
3.2011 -4.3502 0.6779
3.1943 -4.3187 0.6629
3.1851 -4.2873 0.648
3.2587 -4.8881 0.8974
3.2655 -4.863 0.8765
3.2727 -4.8378 0.8555
3.2797 -4.8125 0.8344
3.2862 -4.787 0.8131
3.2917 -4.7614 0.7917
3.2963 -4.7356 0.7702
3.2998 -4.7096 0.7486
3.3023 -4.6835 0.7268
3.3037 -4.6573 0.7049
3.3042 -4.6309 0.6829
3.3038 -4.6044 0.6608
3.3026 -4.5778 0.6386
3.3006 -4.5512 0.6164
3.2979 -4.5244 0.5941
3.2943 -4.4977 0.5718
3.29 -4.4709 0.5495
3.2846 -4.4441 0.5271
3.2779 -4.4173 0.5048
3.2687 -4.3906 0.4825
3.3423 -4.9091 0.8735
3.3491 -4.89 0.847
3.3563 -4.8709 0.8204
3.3633 -4.8516 0.7936
3.3697 -4.8322 0.7667
3.3753 -4.8127 0.7396
3.3799 -4.7931 0.7123
3.3834 -4.7734 0.6849
3.3859 -4.7535 0.6573
3.3873 -4.7335 0.6296
3.3878 -4.7135 0.6017
3.3874 -4.6933 0.5738
3.3862 -4.6731 0.5457
3.3842 -4.6529 0.5175
3.3814 -4.6326 0.4893
3.3779 -4.6122 0.4611
3.3736 -4.5919 0.4328
3.3682 -4.5715 0.4045
3.3615 -4.5511 0.3762
3.3523 -4.5308 0.348
3.4258 -4.9343 0.8554
3.4327 -4.9224 0.825
3.4399 -4.9105 0.7944
3.4469 -4.8985 0.7637
3.4533 -4.8865 0.7328
3.4589 -4.8743 0.7017
3.4635 -4.8621 0.6705
3.467 -4.8498 0.639
3.4694 -4.8375 0.6074
3.4709 -4.8251 0.5756
3.4714 -4.8126 0.5436
3.471 -4.8001 0.5115
3.4697 -4.7875 0.4793
3.4678 -4.7749 0.447
3.465 -4.7623 0.4146
3.4615 -4.7496 0.3822
3.4571 -4.7369 0.3498
3.4518 -4.7243 0.3173
3.445 -4.7116 0.2849
3.4358 -4.699 0.2526
3.5094 -4.9621 0.844
3.5162 -4.9582 0.8116
3.5234 -4.9543 0.7791
3.5305 -4.9503 0.7463
3.5369 -4.9463 0.7134
3.5425 -4.9423 0.6803
3.547 -4.9383 0.647
3.5506 -4.9342 0.6135
3.553 -4.9302 0.5798
3.5544 -4.9261 0.5459
3.5549 -4.9219 0.5119
3.5545 -4.9178 0.4777
3.5533 -4.9137 0.4434
3.5513 -4.9095 0.409
3.5486 -4.9053 0.3745
3.5451 -4.9012 0.34
3.5407 -4.897 0.3055
3.5353 -4.8928 0.2709
3.5286 -4.8886 0.2364
3.5194 -4.8845 0.202
3.593 -4.9908 0.8398
3.5998 -4.9951 0.8075
3.607 -4.9994 0.7749
3.614 -5.0037 0.7423
3.6205 -5.008 0.7094
3.626 -5.0124 0.6764
3.6306 -5.0168 0.6431
3.6341 -5.0212 0.6097
3.6366 -5.0257 0.576
3.638 -5.0301 0.5422
3.6385 -5.0346 0.5082
3.6381 -5.0391 0.4741
3.6369 -5.0437 0.4399
3.6349 -5.0482 0.4056
3.6322 -5.0527 0.3712
3.6286 -5.0573 0.3368
3.6243 -5.0618 0.3024
3.6189 -5.0664 0.2679
3.6122 -5.0709 0.2334
3.603 -5.0755 0.1991
3.6766 -5.0185 0.8427
3.6834 -5.0307 0.8125
3.6906 -5.043 0.7821
3.6976 -5.0553 0.7515
3.704 -5.0677 0.7208
3.7096 -5.0802 0.6899
3.7142 -5.0927 0.6588
3.7177 -5.1053 0.6275
3.7202 -5.118 0.5961
3.7216 -5.1307 0.5644
3.7221 -5.1435 0.5327
3.7217 -5.1564 0.5008
3.7205 -5.1693 0.4688
3.7185 -5.1822 0.4368
3.7157 -5.1951 0.4046
3.7122 -5.2081 0.3725
3.7079 -5.2211 0.3403
3.7025 -5.2341 0.3081
3.6957 -5.247 0.2759
3.6866 -5.26 0.2437
3.7601 -5.0436 0.8523
3.767 -5.0629 0.8261
3.7742 -5.0824 0.7997
3.7812 -5.1019 0.7732
3.7876 -5.1216 0.7465
3.7932 -5.1413 0.7197
3.7978 -5.1612 0.6927
3.8013 -5.1812 0.6656
3.8037 -5.2013 0.6383
3.8052 -5.2215 0.6109
3.8056 -5.2418 0.5834
3.8053 -5.2621 0.5557
3.804 -5.2825 0.528
3.802 -5.303 0.5002
3.7993 -5.3235 0.4723
3.7958 -5.3441 0.4444
3.7914 -5.3647 0.4165
3.7861 -5.3852 0.3886
3.7793 -5.4058 0.3607
3.7701 -5.4263 0.3328
3.8437 -5.0644 0.8677
3.8505 -5.0897 0.8471
3.8577 -5.1151 0.8264
3.8648 -5.1406 0.8056
3.8712 -5.1662 0.7847
3.8768 -5.192 0.7636
3.8813 -5.218 0.7425
3.8849 -5.244 0.7212
3.8873 -5.2703 0.6998
3.8887 -5.2966 0.6783
3.8892 -5.3231 0.6567
3.8888 -5.3497 0.6351
3.8876 -5.3763 0.6133
3.8856 -5.4031 0.5915
3.8829 -5.4298 0.5697
3.8794 -5.4566 0.5478
3.875 -5.4835 0.526
3.8696 -5.5103 0.5041
3.8629 -5.5372 0.4822
3.8537 -5.5639 0.4604
3.9273 -5.0796 0.8877
3.9341 -5.1092 0.874
3.9413 -5.1389 0.8603
3.9483 -5.1688 0.8465
3.9548 -5.1989 0.8326
3.9603 -5.2291 0.8187
3.9649 -5.2594 0.8047
3.9684 -5.29 0.7906
3.9709 -5.3206 0.7764
3.9723 -5.3515 0.7622
3.9728 -5.3825 0.7479
3.9724 -5.4136 0.7336
3.9712 -5.4448 0.7192
3.9692 -5.476 0.7047
3.9665 -5.5073 0.6903
3.9629 -5.5387 0.6758
3.9586 -5.5701 0.6613
3.9532 -5.6015 0.6469
3.9465 -5.6328 0.6324
3.9373 -5.6642 0.6179
4.0108 -5.0882 0.9107
4.0177 -5.1203 0.9048
4.0249 -5.1525 0.8989
4.0319 -5.1849 0.893
4.0383 -5.2174 0.8871
4.0439 -5.2501 0.8811
4.0485 -5.283 0.8751
4.052 -5.316 0.8691
4.0544 -5.3492 0.863
4.0559 -5.3826 0.8569
4.0564 -5.4161 0.8508
4.056 -5.4497 0.8447
4.0548 -5.4835 0.8385
4.0528 -5.5173 0.8323
4.05 -5.5511 0.8261
4.0465 -5.585 0.82
4.0422 -5.619 0.8138
4.0368 -5.6529 0.8076
4.03 -5.6868 0.8014
4.0208 -5.7207 0.7952
4.0944 -5.0898 0.9349
4.1013 -5.1223 0.9372
4.1085 -5.155 0.9396
4.1155 -5.1878 0.9419
4.1219 -5.2207 0.9443
4.1275 -5.2538 0.9466
4.1321 -5.2871 0.949
4.1356 -5.3206 0.9514
4.138 -5.3542 0.9538
4.1395 -5.388 0.9562
4.1399 -5.4219 0.9586
4.1395 -5.4559 0.961
4.1383 -5.4901 0.9635
4.1363 -5.5243 0.9659
4.1336 -5.5585 0.9683
4.1301 -5.5928 0.9708
4.1257 -5.6271 0.9732
4.1204 -5.6615 0.9757
4.1136 -5.6958 0.9781
4.1044 -5.7301 0.9806
4.178 -5.0842 0.9587
4.1848 -5.1151 0.969
4.192 -5.1461 0.9794
4.199 -5.1773 0.9898
4.2055 -5.2086 1.0003
4.2111 -5.24 1.0108
4.2156 -5.2716 1.0214
4.2191 -5.3034 1.032
4.2216 -5.3353 1.0427
4.223 -5.3673 1.0534
4.2235 -5.3995 1.0642
4.2231 -5.4318 1.075
4.2219 -5.4642 1.0858
4.2199 -5.4966 1.0967
4.2172 -5.5291 1.1076
4.2137 -5.5616 1.1185
4.2093 -5.5941 1.1293
4.2039 -5.6267 1.1402
4.1972 -5.6592 1.1511
4.188 -5.6917 1.162
4.2616 -5.0717 0.9801
4.2684 -5.0991 0.9978
4.2756 -5.1265 1.0156
4.2826 -5.1541 1.0335
4.2891 -5.1817 1.0514
4.2946 -5.2096 1.0694
4.2992 -5.2375 1.0875
4.3027 -5.2655 1.1057
4.3052 -5.2937 1.1239
4.3066 -5.322 1.1422
4.3071 -5.3504 1.1606
4.3067 -5.3789 1.1791
4.3055 -5.4075 1.1976
4.3035 -5.4361 1.2161
4.3007 -5.4648 1.2347
4.2972 -5.4935 1.2533
[...]
CELL_DATA 2755
SCALARS circulation float 1
LOOKUP_TABLE default
0.9508418601547466
1.4758591310916949
2.003704411087254
2.5584857992933623
3.1377673304649107
3.7000118246047657
4.263261951867835
4.826197309559444
5.328584091203206
5.727824845909163
6.018721449208589
6.200695504204613
6.272305134910891
6.230287130042534
6.066327791578103
5.76198093335416
5.28374356293172
4.579587169337054
3.5590177624794754
0.9508418601547466
1.4758591310916949
2.003704411087254
2.5584857992933623
3.1377673304649107
3.7000118246047657
4.263261951867835
4.826197309559444
5.328584091203206
5.727824845909163
6.018721449208589
6.200695504204613
6.272305134910891
6.230287130042534
6.066327791578103
5.76198093335416
5.28374356293172
4.579587169337054
3.5590177624794754
0.9508418601547466
1.4758591310916949
2.003704411087254
2.5584857992933623
3.1377673304649107
3.7000118246047657
4.263261951867835
4.826197309559444
5.328584091203206
5.727824845909163
6.018721449208589
6.200695504204613
6.272305134910891
6.230287130042534
6.066327791578103
5.76198093335416
5.28374356293172
4.579587169337054
3.5590177624794754
0.9508418601547466
1.4758591310916949
2.003704411087254
2.5584857992933623
3.1377673304649107
3.7000118246047657
4.263261951867835
4.826197309559444
5.328584091203206
5.727824845909163
6.018721449208589
6.200695504204613
6.272305134910891
6.230287130042534
6.066327791578103
5.76198093335416
5.28374356293172
4.579587169337054
3.5590177624794754
0.9508418601547466
1.4758591310916949
2.003704411087254
2.5584857992933623
3.1377673304649107
3.7000118246047657
4.263261951867835
4.826197309559444
5.328584091203206
5.727824845909163
6.018721449208589
6.200695504204613
6.272305134910891
6.230287130042534
6.066327791578103
5.76198093335416
5.28374356293172
4.579587169337054
3.5590177624794754
0.9508418601547466
1.4758591310916949
2.003704411087254
2.5584857992933623
3.1377673304649107
3.7000118246047657
4.263261951867835
4.826197309559444
5.328584091203206
5.727824845909163
6.018721449208589
6.200695504204613
6.272305134910891
6.230287130042534
6.066327791578103
5.76198093335416
5.28374356293172
4.579587169337054
3.5590177624794754
0.9508418601547466
1.4758591310916949
2.003704411087254
2.5584857992933623
3.1377673304649107
3.7000118246047657
4.263261951867835
4.826197309559444
5.328584091203206
5.727824845909163
6.018721449208589
6.200695504204613
6.272305134910891
6.230287130042534
6.066327791578103
5.76198093335416
5.28374356293172
4.579587169337054
3.5590177624794754
0.9508418601547466
1.4758591310916949
2.003704411087254
2.5584857992933623
3.1377673304649107
3.7000118246047657
4.263261951867835
4.826197309559444
5.328584091203206
5.727824845909163
6.018721449208589
6.200695504204613
6.272305134910891
6.230287130042534
6.066327791578103
5.76198093335416
5.28374356293172
4.579587169337054
3.5590177624794754
0.9508418601547466
1.4758591310916949
2.003704411087254
2.5584857992933623
3.1377673304649107
3.7000118246047657
4.263261951867835
4.826197309559444
5.328584091203206
5.727824845909163
6.018721449208589
6.200695504204613
6.272305134910891
6.230287130042534
6.066327791578103
5.76198093335416
5.28374356293172
4.579587169337054
3.5590177624794754
0.9508418601547466
1.4758591310916949
2.003704411087254
2.5584857992933623
3.1377673304649107
3.7000118246047657
4.263261951867835
4.826197309559444
5.328584091203206
5.727824845909163
6.018721449208589
6.200695504204613
6.272305134910891
6.230287130042534
6.066327791578103
5.76198093335416
5.28374356293172
4.579587169337054
3.5590177624794754
0.9508418601547466
1.4758591310916949
2.003704411087254
2.5584857992933623
3.1377673304649107
3.7000118246047657
4.263261951867835
4.826197309559444
5.328584091203206
5.727824845909163
6.018721449208589
6.200695504204613
6.272305134910891
6.230287130042534
6.066327791578103
5.76198093335416
5.28374356293172
4.579587169337054
3.5590177624794754
0.9508418601547466
1.4758591310916949
2.003704411087254
2.5584857992933623
3.1377673304649107
3.7000118246047657
4.263261951867835
4.826197309559444
5.328584091203206
5.727824845909163
6.018721449208589
6.200695504204613
6.272305134910891
6.230287130042534
6.066327791578103
5.76198093335416
5.28374356293172
4.579587169337054
3.5590177624794754
0.9508418601547466
1.4758591310916949
2.003704411087254
2.5584857992933623
3.1377673304649107
3.7000118246047657
4.263261951867835
4.826197309559444
5.328584091203206
5.727824845909163
6.018721449208589
6.200695504204613
6.272305134910891
6.230287130042534
6.066327791578103
5.76198093335416
5.28374356293172
4.579587169337054
3.5590177624794754
0.9508418601547466
1.4758591310916949
2.003704411087254
2.5584857992933623
3.1377673304649107
3.7000118246047657
4.263261951867835
4.826197309559444
5.328584091203206
5.727824845909163
6.018721449208589
6.200695504204613
6.272305134910891
6.230287130042534
6.066327791578103
5.76198093335416
5.28374356293172
4.579587169337054
3.5590177624794754
0.9508418601547466
1.4758591310916949
2.003704411087254
2.5584857992933623
3.1377673304649107
3.7000118246047657
4.263261951867835
4.826197309559444
5.328584091203206
5.727824845909163
6.018721449208589
6.200695504204613
6.272305134910891
6.230287130042534
6.066327791578103
5.76198093335416
5.28374356293172
4.579587169337054
3.5590177624794754
0.9508418601547466
1.4758591310916949
2.003704411087254
2.5584857992933623
3.1377673304649107
3.7000118246047657
4.263261951867835
4.826197309559444
5.328584091203206
5.727824845909163
6.018721449208589
6.200695504204613
6.272305134910891
6.230287130042534
6.066327791578103
5.76198093335416
5.28374356293172
4.579587169337054
3.5590177624794754
0.9508418601547466
1.4758591310916949
2.003704411087254
2.5584857992933623
3.1377673304649107
3.7000118246047657
4.263261951867835
4.826197309559444
5.328584091203206
5.727824845909163
6.018721449208589
6.200695504204613
6.272305134910891
6.230287130042534
6.066327791578103
5.76198093335416
5.28374356293172
4.579587169337054
3.5590177624794754
0.9508418601547466
1.4758591310916949
2.003704411087254
2.5584857992933623
3.1377673304649107
3.7000118246047657
4.263261951867835
4.826197309559444
5.328584091203206
5.727824845909163
6.018721449208589
6.200695504204613
6.272305134910891
6.230287130042534
6.066327791578103
5.76198093335416
5.28374356293172
4.579587169337054
3.5590177624794754
0.9508418601547466
1.4758591310916949
2.003704411087254
2.5584857992933623
3.1377673304649107
3.7000118246047657
4.263261951867835
4.826197309559444
5.328584091203206
5.727824845909163
6.018721449208589
6.200695504204613
6.272305134910891
6.230287130042534
6.066327791578103
5.76198093335416
5.28374356293172
4.579587169337054
3.5590177624794754
0.9508418601547466
1.4758591310916949
2.003704411087254
2.5584857992933623
3.1377673304649107
3.7000118246047657
4.263261951867835
4.826197309559444
5.328584091203206
5.727824845909163
6.018721449208589
6.200695504204613
6.272305134910891
6.230287130042534
6.066327791578103
5.76198093335416
5.28374356293172
4.579587169337054
3.5590177624794754
0.9508418601547466
1.4758591310916949
2.003704411087254
2.5584857992933623
3.1377673304649107
3.7000118246047657
4.263261951867835
4.826197309559444
5.328584091203206
5.727824845909163
6.018721449208589
6.200695504204613
6.272305134910891
6.230287130042534
6.066327791578103
5.76198093335416
5.28374356293172
4.579587169337054
3.5590177624794754
0.9508418601547466
1.4758591310916949
2.003704411087254
2.5584857992933623
3.1377673304649107
3.7000118246047657
4.263261951867835
4.826197309559444
5.328584091203206
5.727824845909163
6.018721449208589
6.200695504204613
6.272305134910891
6.230287130042534
6.066327791578103
5.76198093335416
5.28374356293172
4.579587169337054
3.5590177624794754
0.9508418601547466
1.4758591310916949
2.003704411087254
2.5584857992933623
3.1377673304649107
3.7000118246047657
4.263261951867835
4.826197309559444
5.328584091203206
5.727824845909163
6.018721449208589
6.200695504204613
6.272305134910891
6.230287130042534
6.066327791578103
5.76198093335416
5.28374356293172
4.579587169337054
3.5590177624794754
0.9508418601547466
1.4758591310916949
2.003704411087254
2.5584857992933623
3.1377673304649107
3.7000118246047657
4.263261951867835
4.826197309559444
5.328584091203206
5.727824845909163
6.018721449208589
6.200695504204613
6.272305134910891
6.230287130042534
6.066327791578103
5.76198093335416
5.28374356293172
4.579587169337054
3.5590177624794754
0.9508418601547466
1.4758591310916949
2.003704411087254
2.5584857992933623
3.1377673304649107
3.7000118246047657
4.263261951867835
4.826197309559444
5.328584091203206
5.727824845909163
6.018721449208589
6.200695504204613
6.272305134910891
6.230287130042534
6.066327791578103
5.76198093335416
5.28374356293172
4.579587169337054
3.5590177624794754
0.9508418601547466
1.4758591310916949
2.003704411087254
2.5584857992933623
3.1377673304649107
3.7000118246047657
4.263261951867835
4.826197309559444
5.328584091203206
5.727824845909163
6.018721449208589
6.200695504204613
6.272305134910891
6.230287130042534
6.066327791578103
5.76198093335416
5.28374356293172
4.579587169337054
3.5590177624794754
0.9508418601547466
1.4758591310916949
2.003704411087254
2.5584857992933623
3.1377673304649107
3.7000118246047657
4.263261951867835
4.826197309559444
5.328584091203206
5.727824845909163
6.018721449208589
6.200695504204613
6.272305134910891
6.230287130042534
6.066327791578103
5.76198093335416
5.28374356293172
4.579587169337054
3.5590177624794754
0.9508418601547466
1.4758591310916949
2.003704411087254
2.5584857992933623
3.1377673304649107
3.7000118246047657
4.263261951867835
4.826197309559444
5.328584091203206
5.727824845909163
6.018721449208589
6.200695504204613
6.272305134910891
6.230287130042534
6.066327791578103
5.76198093335416
5.28374356293172
4.579587169337054
3.5590177624794754
0.9508418601547466
1.4758591310916949
2.003704411087254
2.5584857992933623
3.1377673304649107
3.7000118246047657
4.263261951867835
4.826197309559444
5.328584091203206
5.727824845909163
6.018721449208589
6.200695504204613
6.272305134910891
6.230287130042534
6.066327791578103
5.76198093335416
5.28374356293172
4.579587169337054
3.5590177624794754
0.9508418601547466
1.4758591310916949
2.003704411087254
2.5584857992933623
3.1377673304649107
3.7000118246047657
4.263261951867835
4.826197309559444
5.328584091203206
5.727824845909163
6.018721449208589
6.200695504204613
6.272305134910891
6.230287130042534
6.066327791578103
5.76198093335416
5.28374356293172
4.579587169337054
3.5590177624794754
0.9508418601547466
1.4758591310916949
2.003704411087254
2.5584857992933623
3.1377673304649107
3.7000118246047657
4.263261951867835
4.826197309559444
5.328584091203206
5.727824845909163
6.018721449208589
6.200695504204613
6.272305134910891
6.230287130042534
6.066327791578103
5.76198093335416
5.28374356293172
4.579587169337054
3.5590177624794754
0.9508418601547466
1.4758591310916949
2.003704411087254
2.5584857992933623
3.1377673304649107
3.7000118246047657
4.263261951867835
4.826197309559444
5.328584091203206
5.727824845909163
6.018721449208589
6.200695504204613
6.272305134910891
6.230287130042534
6.066327791578103
5.76198093335416
5.28374356293172
4.579587169337054
3.5590177624794754
0.9508418601547466
1.4758591310916949
2.003704411087254
2.5584857992933623
3.1377673304649107
3.7000118246047657
4.263261951867835
4.826197309559444
5.328584091203206
5.727824845909163
6.018721449208589
6.200695504204613
6.272305134910891
6.230287130042534
6.066327791578103
5.76198093335416
5.28374356293172
4.579587169337054
3.5590177624794754
0.9508418601547466
1.4758591310916949
2.003704411087254
2.5584857992933623
3.1377673304649107
3.7000118246047657
4.263261951867835
4.826197309559444
5.328584091203206
5.727824845909163
6.018721449208589
6.200695504204613
6.272305134910891
6.230287130042534
6.066327791578103
5.76198093335416
5.28374356293172
4.579587169337054
3.5590177624794754
0.9508418601547466
1.4758591310916949
2.003704411087254
2.5584857992933623
3.1377673304649107
3.7000118246047657
4.263261951867835
4.826197309559444
5.328584091203206
5.727824845909163
6.018721449208589
6.200695504204613
6.272305134910891
6.230287130042534
6.066327791578103
5.76198093335416
5.28374356293172
4.579587169337054
3.5590177624794754
0.9508418601547466
1.4758591310916949
2.003704411087254
2.5584857992933623
3.1377673304649107
3.7000118246047657
4.263261951867835
4.826197309559444
5.328584091203206
5.727824845909163
6.018721449208589
6.200695504204613
6.272305134910891
6.230287130042534
6.066327791578103
5.76198093335416
5.28374356293172
4.579587169337054
3.5590177624794754
0.9508418601547466
1.4758591310916949
2.003704411087254
2.5584857992933623
3.1377673304649107
3.7000118246047657
4.263261951867835
4.826197309559444
5.328584091203206
5.727824845909163
6.018721449208589
6.200695504204613
6.272305134910891
6.230287130042534
6.066327791578103
5.76198093335416
5.28374356293172
4.579587169337054
3.5590177624794754
0.9508418601547466
1.4758591310916949
2.003704411087254
2.5584857992933623
3.1377673304649107
3.7000118246047657
4.263261951867835
4.826197309559444
5.328584091203206
5.727824845909163
6.018721449208589
6.200695504204613
6.272305134910891
6.230287130042534
6.066327791578103
5.76198093335416
5.28374356293172
4.579587169337054
3.5590177624794754
0.9508418601547466
1.4758591310916949
2.003704411087254
2.5584857992933623
3.1377673304649107
3.7000118246047657
4.263261951867835
4.826197309559444
5.328584091203206
5.727824845909163
6.018721449208589
6.200695504204613
6.272305134910891
6.230287130042534
6.066327791578103
5.76198093335416
5.28374356293172
4.579587169337054
3.5590177624794754
0.9508418601547466
1.4758591310916949
2.003704411087254
2.5584857992933623
3.1377673304649107
3.7000118246047657
4.263261951867835
4.826197309559444
5.328584091203206
5.727824845909163
6.018721449208589
6.200695504204613
6.272305134910891
6.230287130042534
6.066327791578103
5.76198093335416
5.28374356293172
4.579587169337054
3.5590177624794754
0.9508418601547466
1.4758591310916949
2.003704411087254
2.5584857992933623
3.1377673304649107
3.7000118246047657
4.263261951867835
4.826197309559444
5.328584091203206
5.727824845909163
6.018721449208589
6.200695504204613
6.272305134910891
6.230287130042534
6.066327791578103
5.76198093335416
5.28374356293172
4.579587169337054
3.5590177624794754
0.9508418601547466
1.4758591310916949
2.003704411087254
2.5584857992933623
3.1377673304649107
3.7000118246047657
4.263261951867835
4.826197309559444
5.328584091203206
5.727824845909163
6.018721449208589
6.200695504204613
6.272305134910891
6.230287130042534
6.066327791578103
5.76198093335416
5.28374356293172
4.579587169337054
3.5590177624794754
0.9508418601547466
1.4758591310916949
2.003704411087254
2.5584857992933623
3.1377673304649107
3.7000118246047657
4.263261951867835
4.826197309559444
5.328584091203206
5.727824845909163
6.018721449208589
6.200695504204613
6.272305134910891
6.230287130042534
6.066327791578103
5.76198093335416
5.28374356293172
4.579587169337054
3.5590177624794754
0.9508418601547466
1.4758591310916949
2.003704411087254
2.5584857992933623
3.1377673304649107
3.7000118246047657
4.263261951867835
4.826197309559444
5.328584091203206
5.727824845909163
6.018721449208589
6.200695504204613
6.272305134910891
6.230287130042534
6.066327791578103
5.76198093335416
5.28374356293172
4.579587169337054
3.5590177624794754
0.9508418601547466
1.4758591310916949
2.003704411087254
2.5584857992933623
3.1377673304649107
3.7000118246047657
4.263261951867835
4.826197309559444
5.328584091203206
5.727824845909163
6.018721449208589
6.200695504204613
6.272305134910891
6.230287130042534
6.066327791578103
5.76198093335416
5.28374356293172
4.579587169337054
3.5590177624794754
0.9508418601547466
1.4758591310916949
2.003704411087254
2.5584857992933623
3.1377673304649107
3.7000118246047657
4.263261951867835
4.826197309559444
5.328584091203206
5.727824845909163
6.018721449208589
6.200695504204613
6.272305134910891
6.230287130042534
6.066327791578103
5.76198093335416
5.28374356293172
4.579587169337054
3.5590177624794754
0.9508418601547466
1.4758591310916949
2.003704411087254
2.5584857992933623
3.1377673304649107
3.7000118246047657
4.263261951867835
4.826197309559444
5.328584091203206
5.727824845909163
6.018721449208589
6.200695504204613
6.272305134910891
6.230287130042534
6.066327791578103
5.76198093335416
5.28374356293172
4.579587169337054
3.5590177624794754
0.9508418601547466
1.4758591310916949
2.003704411087254
2.5584857992933623
3.1377673304649107
3.7000118246047657
4.263261951867835
4.826197309559444
5.328584091203206
5.727824845909163
6.018721449208589
6.200695504204613
6.272305134910891
6.230287130042534
6.066327791578103
5.76198093335416
5.28374356293172
4.579587169337054
3.5590177624794754
0.9508418601547466
1.4758591310916949
2.003704411087254
2.5584857992933623
3.1377673304649107
3.7000118246047657
4.263261951867835
4.826197309559444
5.328584091203206
5.727824845909163
6.018721449208589
6.200695504204613
6.272305134910891
6.230287130042534
6.066327791578103
5.76198093335416
5.28374356293172
4.579587169337054
3.5590177624794754
0.9508418601547466
1.4758591310916949
2.003704411087254
2.5584857992933623
3.1377673304649107
3.7000118246047657
4.263261951867835
4.826197309559444
5.328584091203206
5.727824845909163
6.018721449208589
6.200695504204613
6.272305134910891
6.230287130042534
6.066327791578103
5.76198093335416
5.28374356293172
4.579587169337054
3.5590177624794754
0.9508418601547466
1.4758591310916949
2.003704411087254
2.5584857992933623
3.1377673304649107
3.7000118246047657
4.263261951867835
4.826197309559444
5.328584091203206
5.727824845909163
6.018721449208589
6.200695504204613
6.272305134910891
6.230287130042534
6.066327791578103
5.76198093335416
5.28374356293172
4.579587169337054
3.5590177624794754
0.9508418601547466
1.4758591310916949
2.003704411087254
2.5584857992933623
3.1377673304649107
3.7000118246047657
4.263261951867835
4.826197309559444
5.328584091203206
5.727824845909163
6.018721449208589
6.200695504204613
6.272305134910891
6.230287130042534
6.066327791578103
5.76198093335416
5.28374356293172
4.579587169337054
3.5590177624794754
0.9508418601547466
1.4758591310916949
2.003704411087254
2.5584857992933623
3.1377673304649107
3.7000118246047657
4.263261951867835
4.826197309559444
5.328584091203206
5.727824845909163
6.018721449208589
6.200695504204613
6.272305134910891
6.230287130042534
6.066327791578103
5.76198093335416
5.28374356293172
4.579587169337054
3.5590177624794754
0.9508418601547466
1.4758591310916949
2.003704411087254
2.5584857992933623
3.1377673304649107
3.7000118246047657
4.263261951867835
4.826197309559444
5.328584091203206
5.727824845909163
6.018721449208589
6.200695504204613
6.272305134910891
6.230287130042534
6.066327791578103
5.76198093335416
5.28374356293172
4.579587169337054
3.5590177624794754
0.9508418601547466
1.4758591310916949
2.003704411087254
2.5584857992933623
3.1377673304649107
3.7000118246047657
4.263261951867835
4.826197309559444
5.328584091203206
5.727824845909163
6.018721449208589
6.200695504204613
6.272305134910891
6.230287130042534
6.066327791578103
5.76198093335416
5.28374356293172
4.579587169337054
3.5590177624794754
0.9508418601547466
1.4758591310916949
2.003704411087254
2.5584857992933623
3.1377673304649107
3.7000118246047657
4.263261951867835
4.826197309559444
5.328584091203206
5.727824845909163
6.018721449208589
6.200695504204613
6.272305134910891
6.230287130042534
6.066327791578103
5.76198093335416
5.28374356293172
4.579587169337054
3.5590177624794754
0.9508418601547466
1.4758591310916949
2.003704411087254
2.5584857992933623
3.1377673304649107
3.7000118246047657
4.263261951867835
4.826197309559444
5.328584091203206
5.727824845909163
6.018721449208589
6.200695504204613
6.272305134910891
6.230287130042534
6.066327791578103
5.76198093335416
5.28374356293172
4.579587169337054
3.5590177624794754
0.9508418601547466
1.4758591310916949
2.003704411087254
2.5584857992933623
3.1377673304649107
3.7000118246047657
4.263261951867835
4.826197309559444
5.328584091203206
5.727824845909163
6.018721449208589