# vtk DataFile Version 4.0
SUAVE Model of PROWIM Wing 
ASCII
DATASET UNSTRUCTURED_GRID

POINTS 156 float
2.93 0.0 1.01
3.081 0.0 1.0021
3.2319 0.0 0.9942
3.3829 0.0 0.9863
3.5339 0.0 0.9784
3.5339 0.0 0.9784
2.93 0.1926 1.01
3.0792 0.1926 1.0025
3.2284 0.1926 0.995
3.3776 0.1926 0.9875
3.5268 0.1926 0.98
3.5268 0.1926 0.98
2.93 0.3853 1.01
3.0774 0.3853 1.0029
3.2248 0.3853 0.9958
3.3722 0.3853 0.9887
3.5196 0.3853 0.9816
3.5196 0.3853 0.9816
2.93 0.5779 1.01
3.0756 0.5779 1.0033
3.2212 0.5779 0.9966
3.3668 0.5779 0.9899
3.5125 0.5779 0.9831
3.5125 0.5779 0.9831
2.93 0.7705 1.01
3.0738 0.7705 1.0037
3.2176 0.7705 0.9973
3.3615 0.7705 0.991
3.5053 0.7705 0.9847
3.5053 0.7705 0.9847
2.93 0.9632 1.01
3.072 0.9632 1.004
3.2141 0.9632 0.9981
3.3561 0.9632 0.9921
3.4981 0.9632 0.9862
3.4981 0.9632 0.9862
2.93 1.1558 1.01
3.0702 1.1558 1.0044
3.2105 1.1558 0.9988
3.3507 1.1558 0.9932
3.491 1.1558 0.9877
3.491 1.1558 0.9877
2.93 1.3484 1.01
3.0685 1.3484 1.0048
3.2069 1.3484 0.9996
3.3454 1.3484 0.9943
3.4838 1.3484 0.9891
3.4838 1.3484 0.9891
2.93 1.5411 1.01
3.0667 1.5411 1.0051
3.2033 1.5411 1.0003
3.34 1.5411 0.9954
3.4766 1.5411 0.9905
3.4766 1.5411 0.9905
2.93 1.7337 1.01
3.0649 1.7337 1.0055
3.1997 1.7337 1.001
3.3346 1.7337 0.9964
3.4695 1.7337 0.9919
3.4695 1.7337 0.9919
2.93 1.9263 1.01
3.0631 1.9263 1.0058
3.1961 1.9263 1.0016
3.3292 1.9263 0.9975
3.4623 1.9263 0.9933
3.4623 1.9263 0.9933
2.93 2.119 1.01
3.0613 2.119 1.0061
3.1926 2.119 1.0023
3.3238 2.119 0.9984
3.4551 2.119 0.9946
3.4551 2.119 0.9946
2.93 2.3116 1.01
3.0595 2.3116 1.0065
3.189 2.3116 1.0029
3.3184 2.3116 0.9994
3.4479 2.3116 0.9959
3.4479 2.3116 0.9959
2.93 2.5042 1.01
3.0577 2.5042 1.0068
3.1854 2.5042 1.0036
3.313 2.5042 1.0004
3.4407 2.5042 0.9972
3.4407 2.5042 0.9972
2.93 2.6969 1.01
3.0559 2.6969 1.0071
3.1818 2.6969 1.0042
3.3077 2.6969 1.0013
3.4335 2.6969 0.9984
3.4335 2.6969 0.9984
2.93 2.8895 1.01
3.0541 2.8895 1.0074
3.1782 2.8895 1.0048
3.3023 2.8895 1.0022
3.4263 2.8895 0.9996
3.4263 2.8895 0.9996
2.93 3.0821 1.01
3.0523 3.0821 1.0077
3.1746 3.0821 1.0054
3.2969 3.0821 1.0031
3.4192 3.0821 1.0008
3.4192 3.0821 1.0008
2.93 3.2748 1.01
3.0505 3.2748 1.008
3.171 3.2748 1.006
3.2915 3.2748 1.0039
3.412 3.2748 1.0019
3.412 3.2748 1.0019
2.93 3.4674 1.01
3.0487 3.4674 1.0083
3.1674 3.4674 1.0065
3.2861 3.4674 1.0048
3.4048 3.4674 1.003
3.4048 3.4674 1.003
2.93 3.66 1.01
3.0469 3.66 1.0085
3.1638 3.66 1.0071
3.2807 3.66 1.0056
3.3976 3.66 1.0041
3.3976 3.66 1.0041
2.93 3.8527 1.01
3.0451 3.8527 1.0088
3.1602 3.8527 1.0076
3.2753 3.8527 1.0064
3.3903 3.8527 1.0052
3.3903 3.8527 1.0052
2.93 4.0453 1.01
3.0433 4.0453 1.0091
3.1566 4.0453 1.0081
3.2699 4.0453 1.0072
3.3831 4.0453 1.0062
3.3831 4.0453 1.0062
2.93 4.2379 1.01
3.0415 4.2379 1.0093
3.153 4.2379 1.0086
3.2644 4.2379 1.0079
3.3759 4.2379 1.0072
3.3759 4.2379 1.0072
2.93 4.4306 1.01
3.0397 4.4306 1.0095
3.1494 4.4306 1.0091
3.259 4.4306 1.0086
3.3687 4.4306 1.0082
3.3687 4.4306 1.0082
2.93 4.6232 1.01
3.0379 4.6232 1.0098
3.1457 4.6232 1.0095
3.2536 4.6232 1.0093
3.3615 4.6232 1.0091
3.3615 4.6232 1.0091
2.93 4.8158 1.01
3.0361 4.8158 1.01
3.1421 4.8158 1.01
3.2482 4.8158 1.01
3.3543 4.8158 1.01
3.3543 4.8158 1.01

CELLS 125 625
4 0 1 7 6
4 1 2 8 7
4 2 3 9 8
4 3 4 10 9
4 4 5 11 10
4 6 7 13 12
4 7 8 14 13
4 8 9 15 14
4 9 10 16 15
4 10 11 17 16
4 12 13 19 18
4 13 14 20 19
4 14 15 21 20
4 15 16 22 21
4 16 17 23 22
4 18 19 25 24
4 19 20 26 25
4 20 21 27 26
4 21 22 28 27
4 22 23 29 28
4 24 25 31 30
4 25 26 32 31
4 26 27 33 32
4 27 28 34 33
4 28 29 35 34
4 30 31 37 36
4 31 32 38 37
4 32 33 39 38
4 33 34 40 39
4 34 35 41 40
4 36 37 43 42
4 37 38 44 43
4 38 39 45 44
4 39 40 46 45
4 40 41 47 46
4 42 43 49 48
4 43 44 50 49
4 44 45 51 50
4 45 46 52 51
4 46 47 53 52
4 48 49 55 54
4 49 50 56 55
4 50 51 57 56
4 51 52 58 57
4 52 53 59 58
4 54 55 61 60
4 55 56 62 61
4 56 57 63 62
4 57 58 64 63
4 58 59 65 64
4 60 61 67 66
4 61 62 68 67
4 62 63 69 68
4 63 64 70 69
4 64 65 71 70
4 66 67 73 72
4 67 68 74 73
4 68 69 75 74
4 69 70 76 75
4 70 71 77 76
4 72 73 79 78
4 73 74 80 79
4 74 75 81 80
4 75 76 82 81
4 76 77 83 82
4 78 79 85 84
4 79 80 86 85
4 80 81 87 86
4 81 82 88 87
4 82 83 89 88
4 84 85 91 90
4 85 86 92 91
4 86 87 93 92
4 87 88 94 93
4 88 89 95 94
4 90 91 97 96
4 91 92 98 97
4 92 93 99 98
4 93 94 100 99
4 94 95 101 100
4 96 97 103 102
4 97 98 104 103
4 98 99 105 104
4 99 100 106 105
4 100 101 107 106
4 102 103 109 108
4 103 104 110 109
4 104 105 111 110
4 105 106 112 111
4 106 107 113 112
4 108 109 115 114
4 109 110 116 115
4 110 111 117 116
4 111 112 118 117
4 112 113 119 118
4 114 115 121 120
4 115 116 122 121
4 116 117 123 122
4 117 118 124 123
4 118 119 125 124
4 120 121 127 126
4 121 122 128 127
4 122 123 129 128
4 123 124 130 129
4 124 125 131 130
4 126 127 133 132
4 127 128 134 133
4 128 129 135 134
4 129 130 136 135
4 130 131 137 136
4 132 133 139 138
4 133 134 140 139
4 134 135 141 140
4 135 136 142 141
4 136 137 143 142
4 138 139 145 144
4 139 140 146 145
4 140 141 147 146
4 141 142 148 147
4 142 143 149 148
4 144 145 151 150
4 145 146 152 151
4 146 147 153 152
4 147 148 154 153
4 148 149 155 154

CELL_TYPES 125
9
9
9
9
9
9
9
9
9
9
9
9
9
9
9
9
9
9
9
9
9
9
9
9
9
9
9
9
9
9
9
9
9
9
9
9
9
9
9
9
9
9
9
9
9
9
9
9
9
9
9
9
9
9
9
9
9
9
9
9
9
9
9
9
9
9
9
9
9
9
9
9
9
9
9
9
9
9
9
9
9
9
9
9
9
9
9
9
9
9
9
9
9
9
9
9
9
9
9
9
9
9
9
9
9
9
9
9
9
9
9
9
9
9
9
9
9
9
9
9
9
9
9
9
9

CELL_DATA 125
SCALARS i float 1
LOOKUP_TABLE default
0
1
2
3
4
5
6
7
8
9
10
11
12
13
14
15
16
17
18
19
20
21
22
23
24
25
26
27
28
29
30
31
32
33
34
35
36
37
38
39
40
41
42
43
44
45
46
47
48
49
50
51
52
53
54
55
56
57
58
59
60
61
62
63
64
65
66
67
68
69
70
71
72
73
74
75
76
77
78
79
80
81
82
83
84
85
86
87
88
89
90
91
92
93
94
95
96
97
98
99
100
101
102
103
104
105
106
107
108
109
110
111
112
113
114
115
116
117
118
119
120
121
122
123
124
SCALARS cl float 1
LOOKUP_TABLE default
1.1032775586918153
1.1032775586918153
1.1032775586918153
1.1032775586918153
1.1032775586918153
1.077451793521567
1.077451793521567
1.077451793521567
1.077451793521567
1.077451793521567
1.0323967556977578
1.0323967556977578
1.0323967556977578
1.0323967556977578
1.0323967556977578
0.8966100480182109
0.8966100480182109
0.8966100480182109
0.8966100480182109
0.8966100480182109
0.7132560856313523
0.7132560856313523
0.7132560856313523
0.7132560856313523
0.7132560856313523
1.1032775952713336
1.1032775952713336
1.1032775952713336
1.1032775952713336
1.1032775952713336
1.077452038380923
1.077452038380923
1.077452038380923
1.077452038380923
1.077452038380923
1.0323974018728752
1.0323974018728752
1.0323974018728752
1.0323974018728752
1.0323974018728752
0.8966098779541751
0.8966098779541751
0.8966098779541751
0.8966098779541751
0.8966098779541751
0.7132542135422488
0.7132542135422488
0.7132542135422488
0.7132542135422488
0.7132542135422488
0.40173635913969946
0.40173635913969946
0.40173635913969946
0.40173635913969946
0.40173635913969946
0.43128264609472866
0.43128264609472866
0.43128264609472866
0.43128264609472866
0.43128264609472866
0.4257484765678759
0.4257484765678759
0.4257484765678759
0.4257484765678759
0.4257484765678759
0.3626659621867726
0.3626659621867726
0.3626659621867726
0.3626659621867726
0.3626659621867726
0.2344492208513942
0.2344492208513942
0.2344492208513942
0.2344492208513942
0.2344492208513942
0.401736365256087
0.401736365256087
0.401736365256087
0.401736365256087
0.401736365256087
0.431282707094003
0.431282707094003
0.431282707094003
0.431282707094003
0.431282707094003
0.4257486642827228
0.4257486642827228
0.4257486642827228
0.4257486642827228
0.4257486642827228
0.36266644400669373
0.36266644400669373
0.36266644400669373
0.36266644400669373
0.36266644400669373
0.23444998478285045
0.23444998478285045
0.23444998478285045
0.23444998478285045
0.23444998478285045
-2.4655403724083164e-15
-2.4655403724083164e-15
-2.4655403724083164e-15
-2.4655403724083164e-15
-2.4655403724083164e-15
1.1528616797745215e-15
1.1528616797745215e-15
1.1528616797745215e-15
1.1528616797745215e-15
1.1528616797745215e-15
2.7127004244538515e-15
2.7127004244538515e-15
2.7127004244538515e-15
2.7127004244538515e-15
2.7127004244538515e-15
2.9637946872170572e-15
2.9637946872170572e-15
2.9637946872170572e-15
2.9637946872170572e-15
2.9637946872170572e-15
2.0803951601710776e-15
2.0803951601710776e-15
2.0803951601710776e-15
2.0803951601710776e-15
2.0803951601710776e-15
SCALARS Cl/CL float 1
LOOKUP_TABLE default
2.143812728039931
2.143812728039931
2.143812728039931
2.143812728039931
2.143812728039931
2.0936298854295936
2.0936298854295936
2.0936298854295936
2.0936298854295936
2.0936298854295936
2.0060820487242665
2.0060820487242665
2.0060820487242665
2.0060820487242665
2.0060820487242665
1.7422306996882033
1.7422306996882033
1.7422306996882033
1.7422306996882033
1.7422306996882033
1.3859499476645847
1.3859499476645847
1.3859499476645847
1.3859499476645847
1.3859499476645847
2.1438127991187237
2.1438127991187237
2.1438127991187237
2.1438127991187237
2.1438127991187237
2.093630361223377
2.093630361223377
2.093630361223377
2.093630361223377
2.093630361223377
2.0060833043271113
2.0060833043271113
2.0060833043271113
2.0060833043271113
2.0060833043271113
1.7422303692315184
1.7422303692315184
1.7422303692315184
1.7422303692315184
1.7422303692315184
1.3859463099503788
1.3859463099503788
1.3859463099503788
1.3859463099503788
1.3859463099503788
0.7806263376382929
0.7806263376382929
0.7806263376382929
0.7806263376382929
0.7806263376382929
0.8380386411348107
0.8380386411348107
0.8380386411348107
0.8380386411348107
0.8380386411348107
0.8272850252587973
0.8272850252587973
0.8272850252587973
0.8272850252587973
0.8272850252587973
0.7047074416022192
0.7047074416022192
0.7047074416022192
0.7047074416022192
0.7047074416022192
0.4555655281670258
0.4555655281670258
0.4555655281670258
0.4555655281670258
0.4555655281670258
0.7806263495232346
0.7806263495232346
0.7806263495232346
0.7806263495232346
0.7806263495232346
0.8380387596643863
0.8380387596643863
0.8380387596643863
0.8380387596643863
0.8380387596643863
0.8272853900133188
0.8272853900133188
0.8272853900133188
0.8272853900133188
0.8272853900133188
0.7047083778414016
0.7047083778414016
0.7047083778414016
0.7047083778414016
0.7047083778414016
0.4555670125858526
0.4555670125858526
0.4555670125858526
0.4555670125858526
0.4555670125858526
-4.790867710689774e-15
-4.790867710689774e-15
-4.790867710689774e-15
-4.790867710689774e-15
-4.790867710689774e-15
2.240161166425481e-15
2.240161166425481e-15
2.240161166425481e-15
2.240161166425481e-15
2.240161166425481e-15
5.2711320478584775e-15
5.2711320478584775e-15
5.2711320478584775e-15
5.2711320478584775e-15
5.2711320478584775e-15
5.759041071484263e-15
5.759041071484263e-15
5.759041071484263e-15
5.759041071484263e-15
5.759041071484263e-15
4.042480143451606e-15
4.042480143451606e-15
4.042480143451606e-15
4.042480143451606e-15
4.042480143451606e-15
SCALARS cd float 1
LOOKUP_TABLE default
0.08509979162665932
0.08509979162665932
0.08509979162665932
0.08509979162665932
0.08509979162665932
0.07224037307579384
0.07224037307579384
0.07224037307579384
0.07224037307579384
0.07224037307579384
0.06486527267446424
0.06486527267446424
0.06486527267446424
0.06486527267446424
0.06486527267446424
0.059560977485756846
0.059560977485756846
0.059560977485756846
0.059560977485756846
0.059560977485756846
0.07351712608283593
0.07351712608283593
0.07351712608283593
0.07351712608283593
0.07351712608283593
0.08509981623287889
0.08509981623287889
0.08509981623287889
0.08509981623287889
0.08509981623287889
0.07224039762800956
0.07224039762800956
0.07224039762800956
0.07224039762800956
0.07224039762800956
0.06486528704380375
0.06486528704380375
0.06486528704380375
0.06486528704380375
0.06486528704380375
0.05956098323737506
0.05956098323737506
0.05956098323737506
0.05956098323737506
0.05956098323737506
0.07351706435614759
0.07351706435614759
0.07351706435614759
0.07351706435614759
0.07351706435614759
0.04243717990451837
0.04243717990451837
0.04243717990451837
0.04243717990451837
0.04243717990451837
0.043396319823012286
0.043396319823012286
0.043396319823012286
0.043396319823012286
0.043396319823012286
0.04231276894256894
0.04231276894256894
0.04231276894256894
0.04231276894256894
0.04231276894256894
0.0377990136131075
0.0377990136131075
0.0377990136131075
0.0377990136131075
0.0377990136131075
0.02816133787427113
0.02816133787427113
0.02816133787427113
0.02816133787427113
0.02816133787427113
0.04243718071561339
0.04243718071561339
0.04243718071561339
0.04243718071561339
0.04243718071561339
0.04339632528456956
0.04339632528456956
0.04339632528456956
0.04339632528456956
0.04339632528456956
0.04231278222342807
0.04231278222342807
0.04231278222342807
0.04231278222342807
0.04231278222342807
0.037799047526230756
0.037799047526230756
0.037799047526230756
0.037799047526230756
0.037799047526230756
0.02816140837000221
0.02816140837000221
0.02816140837000221
0.02816140837000221
0.02816140837000221
-2.7266570489143043e-15
-2.7266570489143043e-15
-2.7266570489143043e-15
-2.7266570489143043e-15
-2.7266570489143043e-15
1.7469048478252278e-16
1.7469048478252278e-16
1.7469048478252278e-16
1.7469048478252278e-16
1.7469048478252278e-16
1.718884227371556e-16
1.718884227371556e-16
1.718884227371556e-16
1.718884227371556e-16
1.718884227371556e-16
4.3583929882617835e-17
4.3583929882617835e-17
4.3583929882617835e-17
4.3583929882617835e-17
4.3583929882617835e-17
9.10767320515095e-17
9.10767320515095e-17
9.10767320515095e-17
9.10767320515095e-17
9.10767320515095e-17
SCALARS cd_CD float 1
LOOKUP_TABLE default
1.5603359964707046
1.5603359964707046
1.5603359964707046
1.5603359964707046
1.5603359964707046
1.3245538250333688
1.3245538250333688
1.3245538250333688
1.3245538250333688
1.3245538250333688
1.1893286451144194
1.1893286451144194
1.1893286451144194
1.1893286451144194
1.1893286451144194
1.0920724408318494
1.0920724408318494
1.0920724408318494
1.0920724408318494
1.0920724408318494
1.3479635612666818
1.3479635612666818
1.3479635612666818
1.3479635612666818
1.3479635612666818
1.5603364476347958
1.5603364476347958
1.5603364476347958
1.5603364476347958
1.5603364476347958
1.3245542752072794
1.3245542752072794
1.3245542752072794
1.3245542752072794
1.3245542752072794
1.1893289085815473
1.1893289085815473
1.1893289085815473
1.1893289085815473
1.1893289085815473
1.092072546289886
1.092072546289886
1.092072546289886
1.092072546289886
1.092072546289886
1.3479624294851356
1.3479624294851356
1.3479624294851356
1.3479624294851356
1.3479624294851356
0.7781013105674819
0.7781013105674819
0.7781013105674819
0.7781013105674819
0.7781013105674819
0.7956874939396301
0.7956874939396301
0.7956874939396301
0.7956874939396301
0.7956874939396301
0.7758201897965066
0.7758201897965066
0.7758201897965066
0.7758201897965066
0.7758201897965066
0.6930588247544116
0.6930588247544116
0.6930588247544116
0.6930588247544116
0.6930588247544116
0.5163484933873039
0.5163484933873039
0.5163484933873039
0.5163484933873039
0.5163484933873039
0.7781013254392076
0.7781013254392076
0.7781013254392076
0.7781013254392076
0.7781013254392076
0.7956875940792927
0.7956875940792927
0.7956875940792927
0.7956875940792927
0.7956875940792927
0.7758204333059461
0.7758204333059461
0.7758204333059461
0.7758204333059461
0.7758204333059461
0.6930594465640066
0.6930594465640066
0.6930594465640066
0.6930594465640066
0.6930594465640066
0.5163497859524759
0.5163497859524759
0.5163497859524759
0.5163497859524759
0.5163497859524759
-4.9994260410371665e-14
-4.9994260410371665e-14
-4.9994260410371665e-14
-4.9994260410371665e-14
-4.9994260410371665e-14
3.2030143251455152e-15
3.2030143251455152e-15
3.2030143251455152e-15
3.2030143251455152e-15
3.2030143251455152e-15
3.1516374863759e-15
3.1516374863759e-15
3.1516374863759e-15
3.1516374863759e-15
3.1516374863759e-15
7.991273934236007e-16
7.991273934236007e-16
7.991273934236007e-16
7.991273934236007e-16
7.991273934236007e-16
1.6699253986935544e-15
1.6699253986935544e-15
1.6699253986935544e-15
1.6699253986935544e-15
1.6699253986935544e-15