# vtk DataFile Version 4.0
SUAVE Model of PROWIM Wing 
ASCII
DATASET UNSTRUCTURED_GRID

POINTS 156 float
6.75 0.0 0.623
7.0853 0.0 0.623
7.4206 0.0 0.623
7.7558 0.0 0.623
8.0911 0.0 0.623
8.4264 0.0 0.623
6.7945 0.0 0.6972
7.1218 0.0 0.6972
7.4492 0.0 0.6972
7.7766 0.0 0.6972
8.1039 0.0 0.6972
8.4313 0.0 0.6972
6.839 0.0 0.7713
7.1584 0.0 0.7713
7.4778 0.0 0.7713
7.7973 0.0 0.7713
8.1167 0.0 0.7713
8.4361 0.0 0.7713
6.8835 0.0 0.8455
7.195 0.0 0.8455
7.5065 0.0 0.8455
7.818 0.0 0.8455
8.1295 0.0 0.8455
8.441 0.0 0.8455
6.9279 0.0 0.9196
7.2315 0.0 0.9196
7.5351 0.0 0.9196
7.8387 0.0 0.9196
8.1423 0.0 0.9196
8.4459 0.0 0.9196
6.9724 0.0 0.9938
7.2681 0.0 0.9938
7.5637 0.0 0.9938
7.8594 0.0 0.9938
8.1551 0.0 0.9938
8.4507 0.0 0.9938
7.0169 0.0 1.068
7.3047 0.0 1.068
7.5924 0.0 1.068
7.8801 0.0 1.068
8.1678 0.0 1.068
8.4556 0.0 1.068
7.0614 0.0 1.1421
7.3412 0.0 1.1421
7.621 0.0 1.1421
7.9008 0.0 1.1421
8.1806 0.0 1.1421
8.4604 0.0 1.1421
7.1059 0.0 1.2163
7.3778 0.0 1.2163
7.6497 0.0 1.2163
7.9215 0.0 1.2163
8.1934 0.0 1.2163
8.4653 0.0 1.2163
7.1504 0.0 1.2904
7.4143 0.0 1.2904
7.6783 0.0 1.2904
7.9423 0.0 1.2904
8.2062 0.0 1.2904
8.4702 0.0 1.2904
7.1949 0.0 1.3646
7.4509 0.0 1.3646
7.7069 0.0 1.3646
7.963 0.0 1.3646
8.219 0.0 1.3646
8.475 0.0 1.3646
7.2394 0.0 1.4388
7.4875 0.0 1.4388
7.7356 0.0 1.4388
7.9837 0.0 1.4388
8.2318 0.0 1.4388
8.4799 0.0 1.4388
7.2838 0.0 1.5129
7.524 0.0 1.5129
7.7642 0.0 1.5129
8.0044 0.0 1.5129
8.2446 0.0 1.5129
8.4848 0.0 1.5129
7.3283 0.0 1.5871
7.5606 0.0 1.5871
7.7929 0.0 1.5871
8.0251 0.0 1.5871
8.2574 0.0 1.5871
8.4896 0.0 1.5871
7.3728 0.0 1.6612
7.5972 0.0 1.6612
7.8215 0.0 1.6612
8.0458 0.0 1.6612
8.2702 0.0 1.6612
8.4945 0.0 1.6612
7.4173 0.0 1.7354
7.6337 0.0 1.7354
7.8501 0.0 1.7354
8.0665 0.0 1.7354
8.2829 0.0 1.7354
8.4994 0.0 1.7354
7.4618 0.0 1.8096
7.6703 0.0 1.8096
7.8788 0.0 1.8096
8.0872 0.0 1.8096
8.2957 0.0 1.8096
8.5042 0.0 1.8096
7.5063 0.0 1.8837
7.7068 0.0 1.8837
7.9074 0.0 1.8837
8.108 0.0 1.8837
8.3085 0.0 1.8837
8.5091 0.0 1.8837
7.5508 0.0 1.9579
7.7434 0.0 1.9579
7.936 0.0 1.9579
8.1287 0.0 1.9579
8.3213 0.0 1.9579
8.5139 0.0 1.9579
7.5953 0.0 2.032
7.78 0.0 2.032
7.9647 0.0 2.032
8.1494 0.0 2.032
8.3341 0.0 2.032
8.5188 0.0 2.032
7.6397 0.0 2.1062
7.8165 0.0 2.1062
7.9933 0.0 2.1062
8.1701 0.0 2.1062
8.3469 0.0 2.1062
8.5237 0.0 2.1062
7.6842 0.0 2.1804
7.8531 0.0 2.1804
8.022 0.0 2.1804
8.1908 0.0 2.1804
8.3597 0.0 2.1804
8.5285 0.0 2.1804
7.7287 0.0 2.2545
7.8897 0.0 2.2545
8.0506 0.0 2.2545
8.2115 0.0 2.2545
8.3725 0.0 2.2545
8.5334 0.0 2.2545
7.7732 0.0 2.3287
7.9262 0.0 2.3287
8.0792 0.0 2.3287
8.2322 0.0 2.3287
8.3852 0.0 2.3287
8.5383 0.0 2.3287
7.8177 0.0 2.4028
7.9628 0.0 2.4028
8.1079 0.0 2.4028
8.253 0.0 2.4028
8.398 0.0 2.4028
8.5431 0.0 2.4028
7.8622 0.0 2.477
7.9993 0.0 2.477
8.1365 0.0 2.477
8.2737 0.0 2.477
8.4108 0.0 2.477
8.548 0.0 2.477

CELLS 125 625
4 0 1 7 6
4 1 2 8 7
4 2 3 9 8
4 3 4 10 9
4 4 5 11 10
4 6 7 13 12
4 7 8 14 13
4 8 9 15 14
4 9 10 16 15
4 10 11 17 16
4 12 13 19 18
4 13 14 20 19
4 14 15 21 20
4 15 16 22 21
4 16 17 23 22
4 18 19 25 24
4 19 20 26 25
4 20 21 27 26
4 21 22 28 27
4 22 23 29 28
4 24 25 31 30
4 25 26 32 31
4 26 27 33 32
4 27 28 34 33
4 28 29 35 34
4 30 31 37 36
4 31 32 38 37
4 32 33 39 38
4 33 34 40 39
4 34 35 41 40
4 36 37 43 42
4 37 38 44 43
4 38 39 45 44
4 39 40 46 45
4 40 41 47 46
4 42 43 49 48
4 43 44 50 49
4 44 45 51 50
4 45 46 52 51
4 46 47 53 52
4 48 49 55 54
4 49 50 56 55
4 50 51 57 56
4 51 52 58 57
4 52 53 59 58
4 54 55 61 60
4 55 56 62 61
4 56 57 63 62
4 57 58 64 63
4 58 59 65 64
4 60 61 67 66
4 61 62 68 67
4 62 63 69 68
4 63 64 70 69
4 64 65 71 70
4 66 67 73 72
4 67 68 74 73
4 68 69 75 74
4 69 70 76 75
4 70 71 77 76
4 72 73 79 78
4 73 74 80 79
4 74 75 81 80
4 75 76 82 81
4 76 77 83 82
4 78 79 85 84
4 79 80 86 85
4 80 81 87 86
4 81 82 88 87
4 82 83 89 88
4 84 85 91 90
4 85 86 92 91
4 86 87 93 92
4 87 88 94 93
4 88 89 95 94
4 90 91 97 96
4 91 92 98 97
4 92 93 99 98
4 93 94 100 99
4 94 95 101 100
4 96 97 103 102
4 97 98 104 103
4 98 99 105 104
4 99 100 106 105
4 100 101 107 106
4 102 103 109 108
4 103 104 110 109
4 104 105 111 110
4 105 106 112 111
4 106 107 113 112
4 108 109 115 114
4 109 110 116 115
4 110 111 117 116
4 111 112 118 117
4 112 113 119 118
4 114 115 121 120
4 115 116 122 121
4 116 117 123 122
4 117 118 124 123
4 118 119 125 124
4 120 121 127 126
4 121 122 128 127
4 122 123 129 128
4 123 124 130 129
4 124 125 131 130
4 126 127 133 132
4 127 128 134 133
4 128 129 135 134
4 129 130 136 135
4 130 131 137 136
4 132 133 139 138
4 133 134 140 139
4 134 135 141 140
4 135 136 142 141
4 136 137 143 142
4 138 139 145 144
4 139 140 146 145
4 140 141 147 146
4 141 142 148 147
4 142 143 149 148
4 144 145 151 150
4 145 146 152 151
4 146 147 153 152
4 147 148 154 153
4 148 149 155 154

CELL_TYPES 125
9
9
9
9
9
9
9
9
9
9
9
9
9
9
9
9
9
9
9
9
9
9
9
9
9
9
9
9
9
9
9
9
9
9
9
9
9
9
9
9
9
9
9
9
9
9
9
9
9
9
9
9
9
9
9
9
9
9
9
9
9
9
9
9
9
9
9
9
9
9
9
9
9
9
9
9
9
9
9
9
9
9
9
9
9
9
9
9
9
9
9
9
9
9
9
9
9
9
9
9
9
9
9
9
9
9
9
9
9
9
9
9
9
9
9
9
9
9
9
9
9
9
9
9
9

CELL_DATA 125
SCALARS i float 1
LOOKUP_TABLE default
0
1
2
3
4
5
6
7
8
9
10
11
12
13
14
15
16
17
18
19
20
21
22
23
24
25
26
27
28
29
30
31
32
33
34
35
36
37
38
39
40
41
42
43
44
45
46
47
48
49
50
51
52
53
54
55
56
57
58
59
60
61
62
63
64
65
66
67
68
69
70
71
72
73
74
75
76
77
78
79
80
81
82
83
84
85
86
87
88
89
90
91
92
93
94
95
96
97
98
99
100
101
102
103
104
105
106
107
108
109
110
111
112
113
114
115
116
117
118
119
120
121
122
123
124
SCALARS cl float 1
LOOKUP_TABLE default
1.1032775586918153
1.1032775586918153
1.1032775586918153
1.1032775586918153
1.1032775586918153
1.077451793521567
1.077451793521567
1.077451793521567
1.077451793521567
1.077451793521567
1.0323967556977578
1.0323967556977578
1.0323967556977578
1.0323967556977578
1.0323967556977578
0.8966100480182109
0.8966100480182109
0.8966100480182109
0.8966100480182109
0.8966100480182109
0.7132560856313523
0.7132560856313523
0.7132560856313523
0.7132560856313523
0.7132560856313523
1.1032775952713336
1.1032775952713336
1.1032775952713336
1.1032775952713336
1.1032775952713336
1.077452038380923
1.077452038380923
1.077452038380923
1.077452038380923
1.077452038380923
1.0323974018728752
1.0323974018728752
1.0323974018728752
1.0323974018728752
1.0323974018728752
0.8966098779541751
0.8966098779541751
0.8966098779541751
0.8966098779541751
0.8966098779541751
0.7132542135422488
0.7132542135422488
0.7132542135422488
0.7132542135422488
0.7132542135422488
0.40173635913969946
0.40173635913969946
0.40173635913969946
0.40173635913969946
0.40173635913969946
0.43128264609472866
0.43128264609472866
0.43128264609472866
0.43128264609472866
0.43128264609472866
0.4257484765678759
0.4257484765678759
0.4257484765678759
0.4257484765678759
0.4257484765678759
0.3626659621867726
0.3626659621867726
0.3626659621867726
0.3626659621867726
0.3626659621867726
0.2344492208513942
0.2344492208513942
0.2344492208513942
0.2344492208513942
0.2344492208513942
0.401736365256087
0.401736365256087
0.401736365256087
0.401736365256087
0.401736365256087
0.431282707094003
0.431282707094003
0.431282707094003
0.431282707094003
0.431282707094003
0.4257486642827228
0.4257486642827228
0.4257486642827228
0.4257486642827228
0.4257486642827228
0.36266644400669373
0.36266644400669373
0.36266644400669373
0.36266644400669373
0.36266644400669373
0.23444998478285045
0.23444998478285045
0.23444998478285045
0.23444998478285045
0.23444998478285045
-2.4655403724083164e-15
-2.4655403724083164e-15
-2.4655403724083164e-15
-2.4655403724083164e-15
-2.4655403724083164e-15
1.1528616797745215e-15
1.1528616797745215e-15
1.1528616797745215e-15
1.1528616797745215e-15
1.1528616797745215e-15
2.7127004244538515e-15
2.7127004244538515e-15
2.7127004244538515e-15
2.7127004244538515e-15
2.7127004244538515e-15
2.9637946872170572e-15
2.9637946872170572e-15
2.9637946872170572e-15
2.9637946872170572e-15
2.9637946872170572e-15
2.0803951601710776e-15
2.0803951601710776e-15
2.0803951601710776e-15
2.0803951601710776e-15
2.0803951601710776e-15
SCALARS Cl/CL float 1
LOOKUP_TABLE default
2.143812728039931
2.143812728039931
2.143812728039931
2.143812728039931
2.143812728039931
2.0936298854295936
2.0936298854295936
2.0936298854295936
2.0936298854295936
2.0936298854295936
2.0060820487242665
2.0060820487242665
2.0060820487242665
2.0060820487242665
2.0060820487242665
1.7422306996882033
1.7422306996882033
1.7422306996882033
1.7422306996882033
1.7422306996882033
1.3859499476645847
1.3859499476645847
1.3859499476645847
1.3859499476645847
1.3859499476645847
2.1438127991187237
2.1438127991187237
2.1438127991187237
2.1438127991187237
2.1438127991187237
2.093630361223377
2.093630361223377
2.093630361223377
2.093630361223377
2.093630361223377
2.0060833043271113
2.0060833043271113
2.0060833043271113
2.0060833043271113
2.0060833043271113
1.7422303692315184
1.7422303692315184
1.7422303692315184
1.7422303692315184
1.7422303692315184
1.3859463099503788
1.3859463099503788
1.3859463099503788
1.3859463099503788
1.3859463099503788
0.7806263376382929
0.7806263376382929
0.7806263376382929
0.7806263376382929
0.7806263376382929
0.8380386411348107
0.8380386411348107
0.8380386411348107
0.8380386411348107
0.8380386411348107
0.8272850252587973
0.8272850252587973
0.8272850252587973
0.8272850252587973
0.8272850252587973
0.7047074416022192
0.7047074416022192
0.7047074416022192
0.7047074416022192
0.7047074416022192
0.4555655281670258
0.4555655281670258
0.4555655281670258
0.4555655281670258
0.4555655281670258
0.7806263495232346
0.7806263495232346
0.7806263495232346
0.7806263495232346
0.7806263495232346
0.8380387596643863
0.8380387596643863
0.8380387596643863
0.8380387596643863
0.8380387596643863
0.8272853900133188
0.8272853900133188
0.8272853900133188
0.8272853900133188
0.8272853900133188
0.7047083778414016
0.7047083778414016
0.7047083778414016
0.7047083778414016
0.7047083778414016
0.4555670125858526
0.4555670125858526
0.4555670125858526
0.4555670125858526
0.4555670125858526
-4.790867710689774e-15
-4.790867710689774e-15
-4.790867710689774e-15
-4.790867710689774e-15
-4.790867710689774e-15
2.240161166425481e-15
2.240161166425481e-15
2.240161166425481e-15
2.240161166425481e-15
2.240161166425481e-15
5.2711320478584775e-15
5.2711320478584775e-15
5.2711320478584775e-15
5.2711320478584775e-15
5.2711320478584775e-15
5.759041071484263e-15
5.759041071484263e-15
5.759041071484263e-15
5.759041071484263e-15
5.759041071484263e-15
4.042480143451606e-15
4.042480143451606e-15
4.042480143451606e-15
4.042480143451606e-15
4.042480143451606e-15
SCALARS cd float 1
LOOKUP_TABLE default
0.08509979162665932
0.08509979162665932
0.08509979162665932
0.08509979162665932
0.08509979162665932
0.07224037307579384
0.07224037307579384
0.07224037307579384
0.07224037307579384
0.07224037307579384
0.06486527267446424
0.06486527267446424
0.06486527267446424
0.06486527267446424
0.06486527267446424
0.059560977485756846
0.059560977485756846
0.059560977485756846
0.059560977485756846
0.059560977485756846
0.07351712608283593
0.07351712608283593
0.07351712608283593
0.07351712608283593
0.07351712608283593
0.08509981623287889
0.08509981623287889
0.08509981623287889
0.08509981623287889
0.08509981623287889
0.07224039762800956
0.07224039762800956
0.07224039762800956
0.07224039762800956
0.07224039762800956
0.06486528704380375
0.06486528704380375
0.06486528704380375
0.06486528704380375
0.06486528704380375
0.05956098323737506
0.05956098323737506
0.05956098323737506
0.05956098323737506
0.05956098323737506
0.07351706435614759
0.07351706435614759
0.07351706435614759
0.07351706435614759
0.07351706435614759
0.04243717990451837
0.04243717990451837
0.04243717990451837
0.04243717990451837
0.04243717990451837
0.043396319823012286
0.043396319823012286
0.043396319823012286
0.043396319823012286
0.043396319823012286
0.04231276894256894
0.04231276894256894
0.04231276894256894
0.04231276894256894
0.04231276894256894
0.0377990136131075
0.0377990136131075
0.0377990136131075
0.0377990136131075
0.0377990136131075
0.02816133787427113
0.02816133787427113
0.02816133787427113
0.02816133787427113
0.02816133787427113
0.04243718071561339
0.04243718071561339
0.04243718071561339
0.04243718071561339
0.04243718071561339
0.04339632528456956
0.04339632528456956
0.04339632528456956
0.04339632528456956
0.04339632528456956
0.04231278222342807
0.04231278222342807
0.04231278222342807
0.04231278222342807
0.04231278222342807
0.037799047526230756
0.037799047526230756
0.037799047526230756
0.037799047526230756
0.037799047526230756
0.02816140837000221
0.02816140837000221
0.02816140837000221
0.02816140837000221
0.02816140837000221
-2.7266570489143043e-15
-2.7266570489143043e-15
-2.7266570489143043e-15
-2.7266570489143043e-15
-2.7266570489143043e-15
1.7469048478252278e-16
1.7469048478252278e-16
1.7469048478252278e-16
1.7469048478252278e-16
1.7469048478252278e-16
1.718884227371556e-16
1.718884227371556e-16
1.718884227371556e-16
1.718884227371556e-16
1.718884227371556e-16
4.3583929882617835e-17
4.3583929882617835e-17
4.3583929882617835e-17
4.3583929882617835e-17
4.3583929882617835e-17
9.10767320515095e-17
9.10767320515095e-17
9.10767320515095e-17
9.10767320515095e-17
9.10767320515095e-17
SCALARS cd_CD float 1
LOOKUP_TABLE default
1.5603359964707046
1.5603359964707046
1.5603359964707046
1.5603359964707046
1.5603359964707046
1.3245538250333688
1.3245538250333688
1.3245538250333688
1.3245538250333688
1.3245538250333688
1.1893286451144194
1.1893286451144194
1.1893286451144194
1.1893286451144194
1.1893286451144194
1.0920724408318494
1.0920724408318494
1.0920724408318494
1.0920724408318494
1.0920724408318494
1.3479635612666818
1.3479635612666818
1.3479635612666818
1.3479635612666818
1.3479635612666818
1.5603364476347958
1.5603364476347958
1.5603364476347958
1.5603364476347958
1.5603364476347958
1.3245542752072794
1.3245542752072794
1.3245542752072794
1.3245542752072794
1.3245542752072794
1.1893289085815473
1.1893289085815473
1.1893289085815473
1.1893289085815473
1.1893289085815473
1.092072546289886
1.092072546289886
1.092072546289886
1.092072546289886
1.092072546289886
1.3479624294851356
1.3479624294851356
1.3479624294851356
1.3479624294851356
1.3479624294851356
0.7781013105674819
0.7781013105674819
0.7781013105674819
0.7781013105674819
0.7781013105674819
0.7956874939396301
0.7956874939396301
0.7956874939396301
0.7956874939396301
0.7956874939396301
0.7758201897965066
0.7758201897965066
0.7758201897965066
0.7758201897965066
0.7758201897965066
0.6930588247544116
0.6930588247544116
0.6930588247544116
0.6930588247544116
0.6930588247544116
0.5163484933873039
0.5163484933873039
0.5163484933873039
0.5163484933873039
0.5163484933873039
0.7781013254392076
0.7781013254392076
0.7781013254392076
0.7781013254392076
0.7781013254392076
0.7956875940792927
0.7956875940792927
0.7956875940792927
0.7956875940792927
0.7956875940792927
0.7758204333059461
0.7758204333059461
0.7758204333059461
0.7758204333059461
0.7758204333059461
0.6930594465640066
0.6930594465640066
0.6930594465640066
0.6930594465640066
0.6930594465640066
0.5163497859524759
0.5163497859524759
0.5163497859524759
0.5163497859524759
0.5163497859524759
-4.9994260410371665e-14
-4.9994260410371665e-14
-4.9994260410371665e-14
-4.9994260410371665e-14
-4.9994260410371665e-14
3.2030143251455152e-15
3.2030143251455152e-15
3.2030143251455152e-15
3.2030143251455152e-15
3.2030143251455152e-15
3.1516374863759e-15
3.1516374863759e-15
3.1516374863759e-15
3.1516374863759e-15
3.1516374863759e-15
7.991273934236007e-16
7.991273934236007e-16
7.991273934236007e-16
7.991273934236007e-16
7.991273934236007e-16
1.6699253986935544e-15
1.6699253986935544e-15
1.6699253986935544e-15
1.6699253986935544e-15
1.6699253986935544e-15