# vtk DataFile Version 4.0
SUAVE Model of nacelage
ASCII
DATASET UNSTRUCTURED_GRID

POINTS 168 float
2.0 5.7 1.0
2.0 5.7 1.0
2.0 5.7 1.0
2.0 5.7 1.0
2.0 5.7 1.0
2.0 5.7 1.0
2.0 5.7 1.0
2.0 5.7 1.0
2.0 5.7 1.0
2.0 5.7 1.0
2.0 5.7 1.0
2.0 5.7 1.0
2.0 5.7 1.0
2.0 5.7 1.0
2.0 5.7 1.0
2.0 5.7 1.0
2.0 5.7 1.0
2.0 5.7 1.0
2.0 5.7 1.0
2.0 5.7 1.0
2.0 5.7 1.0
2.0 5.7 1.0
2.0 5.7 1.0
2.0 5.7 1.0
2.25 6.025 1.0
2.25 6.0083 1.0864
2.25 5.9619 1.1593
2.25 5.8962 1.21
2.25 5.8231 1.2376
2.25 5.7516 1.2482
2.25 5.6829 1.2498
2.25 5.6131 1.2445
2.25 5.5401 1.2265
2.25 5.4693 1.1877
2.25 5.4117 1.1252
2.25 5.3792 1.0441
2.25 5.3792 0.9559
2.25 5.4117 0.8748
2.25 5.4693 0.8123
2.25 5.5401 0.7735
2.25 5.6131 0.7555
2.25 5.6829 0.7502
2.25 5.7516 0.7518
2.25 5.8231 0.7624
2.25 5.8962 0.79
2.25 5.9619 0.8407
2.25 6.0083 0.9136
2.25 6.025 1.0
2.75 6.05 1.0
2.75 6.0315 1.0929
2.75 5.9804 1.1705
2.75 5.9083 1.2231
2.75 5.8295 1.2499
2.75 5.7538 1.2588
2.75 5.6822 1.2599
2.75 5.6091 1.2559
2.75 5.531 1.2394
2.75 5.4539 1.2002
2.75 5.3906 1.1344
2.75 5.3547 1.0475
2.75 5.3547 0.9525
2.75 5.3906 0.8656
2.75 5.4539 0.7998
2.75 5.531 0.7606
2.75 5.6091 0.7441
2.75 5.6822 0.7401
2.75 5.7538 0.7412
2.75 5.8295 0.7501
2.75 5.9083 0.7769
2.75 5.9804 0.8295
2.75 6.0315 0.9071
2.75 6.05 1.0
3.25 6.025 1.0
3.25 6.0083 1.0864
3.25 5.9619 1.1593
3.25 5.8962 1.21
3.25 5.8231 1.2376
3.25 5.7516 1.2482
3.25 5.6829 1.2498
3.25 5.6131 1.2445
3.25 5.5401 1.2265
3.25 5.4693 1.1877
3.25 5.4117 1.1252
3.25 5.3792 1.0441
3.25 5.3792 0.9559
3.25 5.4117 0.8748
3.25 5.4693 0.8123
3.25 5.5401 0.7735
3.25 5.6131 0.7555
3.25 5.6829 0.7502
3.25 5.7516 0.7518
3.25 5.8231 0.7624
3.25 5.8962 0.79
3.25 5.9619 0.8407
3.25 6.0083 0.9136
3.25 6.025 1.0
3.75 6.0 1.0
3.75 5.983 1.0793
3.75 5.9363 1.1437
3.75 5.8717 1.1839
3.75 5.8035 1.1997
3.75 5.7417 1.2008
3.75 5.6863 1.2001
3.75 5.6285 1.2012
3.75 5.5628 1.1944
3.75 5.4946 1.1671
3.75 5.4372 1.1141
3.75 5.4043 1.0406
3.75 5.4043 0.9594
3.75 5.4372 0.8859
3.75 5.4946 0.8329
3.75 5.5628 0.8056
3.75 5.6285 0.7988
3.75 5.6863 0.7999
3.75 5.7417 0.7992
3.75 5.8035 0.8003
3.75 5.8717 0.8161
3.75 5.9363 0.8563
3.75 5.983 0.9207
3.75 6.0 1.0
4.25 5.95 1.0
4.25 5.9351 1.0659
4.25 5.8943 1.1181
4.25 5.8384 1.1482
4.25 5.781 1.1562
4.25 5.7316 1.1522
4.25 5.6897 1.1503
4.25 5.645 1.1548
4.25 5.5909 1.1546
4.25 5.5326 1.1362
4.25 5.4827 1.0944
4.25 5.4538 1.0338
4.25 5.4538 0.9662
4.25 5.4827 0.9056
4.25 5.5326 0.8638
4.25 5.5909 0.8454
4.25 5.645 0.8452
4.25 5.6897 0.8497
4.25 5.7316 0.8478
4.25 5.781 0.8438
4.25 5.8384 0.8518
4.25 5.8943 0.8819
4.25 5.9351 0.9341
4.25 5.95 1.0
4.5 5.7 1.0
4.5 5.7 1.0
4.5 5.7 1.0
4.5 5.7 1.0
4.5 5.7 1.0
4.5 5.7 1.0
4.5 5.7 1.0
4.5 5.7 1.0
4.5 5.7 1.0
4.5 5.7 1.0
4.5 5.7 1.0
4.5 5.7 1.0
4.5 5.7 1.0
4.5 5.7 1.0
4.5 5.7 1.0
4.5 5.7 1.0
4.5 5.7 1.0
4.5 5.7 1.0
4.5 5.7 1.0
4.5 5.7 1.0
4.5 5.7 1.0
4.5 5.7 1.0
4.5 5.7 1.0
4.5 5.7 1.0

CELLS 144 720
4 0 1 25 24
4 1 2 26 25
4 2 3 27 26
4 3 4 28 27
4 4 5 29 28
4 5 6 30 29
4 6 7 31 30
4 7 8 32 31
4 8 9 33 32
4 9 10 34 33
4 10 11 35 34
4 11 12 36 35
4 12 13 37 36
4 13 14 38 37
4 14 15 39 38
4 15 16 40 39
4 16 17 41 40
4 17 18 42 41
4 18 19 43 42
4 19 20 44 43
4 20 21 45 44
4 21 22 46 45
4 22 23 47 46
4 23 0 24 47
4 24 25 49 48
4 25 26 50 49
4 26 27 51 50
4 27 28 52 51
4 28 29 53 52
4 29 30 54 53
4 30 31 55 54
4 31 32 56 55
4 32 33 57 56
4 33 34 58 57
4 34 35 59 58
4 35 36 60 59
4 36 37 61 60
4 37 38 62 61
4 38 39 63 62
4 39 40 64 63
4 40 41 65 64
4 41 42 66 65
4 42 43 67 66
4 43 44 68 67
4 44 45 69 68
4 45 46 70 69
4 46 47 71 70
4 47 24 48 71
4 48 49 73 72
4 49 50 74 73
4 50 51 75 74
4 51 52 76 75
4 52 53 77 76
4 53 54 78 77
4 54 55 79 78
4 55 56 80 79
4 56 57 81 80
4 57 58 82 81
4 58 59 83 82
4 59 60 84 83
4 60 61 85 84
4 61 62 86 85
4 62 63 87 86
4 63 64 88 87
4 64 65 89 88
4 65 66 90 89
4 66 67 91 90
4 67 68 92 91
4 68 69 93 92
4 69 70 94 93
4 70 71 95 94
4 71 48 72 95
4 72 73 97 96
4 73 74 98 97
4 74 75 99 98
4 75 76 100 99
4 76 77 101 100
4 77 78 102 101
4 78 79 103 102
4 79 80 104 103
4 80 81 105 104
4 81 82 106 105
4 82 83 107 106
4 83 84 108 107
4 84 85 109 108
4 85 86 110 109
4 86 87 111 110
4 87 88 112 111
4 88 89 113 112
4 89 90 114 113
4 90 91 115 114
4 91 92 116 115
4 92 93 117 116
4 93 94 118 117
4 94 95 119 118
4 95 72 96 119
4 96 97 121 120
4 97 98 122 121
4 98 99 123 122
4 99 100 124 123
4 100 101 125 124
4 101 102 126 125
4 102 103 127 126
4 103 104 128 127
4 104 105 129 128
4 105 106 130 129
4 106 107 131 130
4 107 108 132 131
4 108 109 133 132
4 109 110 134 133
4 110 111 135 134
4 111 112 136 135
4 112 113 137 136
4 113 114 138 137
4 114 115 139 138
4 115 116 140 139
4 116 117 141 140
4 117 118 142 141
4 118 119 143 142
4 119 96 120 143
4 120 121 145 144
4 121 122 146 145
4 122 123 147 146
4 123 124 148 147
4 124 125 149 148
4 125 126 150 149
4 126 127 151 150
4 127 128 152 151
4 128 129 153 152
4 129 130 154 153
4 130 131 155 154
4 131 132 156 155
4 132 133 157 156
4 133 134 158 157
4 134 135 159 158
4 135 136 160 159
4 136 137 161 160
4 137 138 162 161
4 138 139 163 162
4 139 140 164 163
4 140 141 165 164
4 141 142 166 165
4 142 143 167 166
4 143 120 144 167

CELL_TYPES 144
9
9
9
9
9
9
9
9
9
9
9
9
9
9
9
9
9
9
9
9
9
9
9
9
9
9
9
9
9
9
9
9
9
9
9
9
9
9
9
9
9
9
9
9
9
9
9
9
9
9
9
9
9
9
9
9
9
9
9
9
9
9
9
9
9
9
9
9
9
9
9
9
9
9
9
9
9
9
9
9
9
9
9
9
9
9
9
9
9
9
9
9
9
9
9
9
9
9
9
9
9
9
9
9
9
9
9
9
9
9
9
9
9
9
9
9
9
9
9
9
9
9
9
9
9
9
9
9
9
9
9
9
9
9
9
9
9
9
9
9
9
9
9
9

CELL_DATA 144
SCALARS i float 1
LOOKUP_TABLE default
0
1
2
3
4
5
6
7
8
9
10
11
12
13
14
15
16
17
18
19
20
21
22
23
24
25
26
27
28
29
30
31
32
33
34
35
36
37
38
39
40
41
42
43
44
45
46
47
48
49
50
51
52
53
54
55
56
57
58
59
60
61
62
63
64
65
66
67
68
69
70
71
72
73
74
75
76
77
78
79
80
81
82
83
84
85
86
87
88
89
90
91
92
93
94
95
96
97
98
99
100
101
102
103
104
105
106
107
108
109
110
111
112
113
114
115
116
117
118
119
120
121
122
123
124
125
126
127
128
129
130
131
132
133
134
135
136
137
138
139
140
141
142
143