# vtk DataFile Version 4.0
SUAVE Model of PROWIM Wing 
ASCII
DATASET UNSTRUCTURED_GRID

POINTS 96 float
6.75 0.0 0.623
7.0853 0.0 0.623
7.4206 0.0 0.623
7.7558 0.0 0.623
8.0911 0.0 0.623
8.4264 0.0 0.623
6.8663 0.0 0.8168
7.1808 0.0 0.8168
7.4954 0.0 0.8168
7.81 0.0 0.8168
8.1245 0.0 0.8168
8.4391 0.0 0.8168
6.9812 0.0 1.0085
7.2753 0.0 1.0085
7.5694 0.0 1.0085
7.8635 0.0 1.0085
8.1576 0.0 1.0085
8.4517 0.0 1.0085
7.0937 0.0 1.1959
7.3677 0.0 1.1959
7.6418 0.0 1.1959
7.9159 0.0 1.1959
8.1899 0.0 1.1959
8.464 0.0 1.1959
7.2024 0.0 1.3771
7.4571 0.0 1.3771
7.7118 0.0 1.3771
7.9665 0.0 1.3771
8.2212 0.0 1.3771
8.4759 0.0 1.3771
7.3061 0.0 1.55
7.5423 0.0 1.55
7.7785 0.0 1.55
8.0148 0.0 1.55
8.251 0.0 1.55
8.4872 0.0 1.55
7.4037 0.0 1.7128
7.6226 0.0 1.7128
7.8414 0.0 1.7128
8.0602 0.0 1.7128
8.279 0.0 1.7128
8.4979 0.0 1.7128
7.4942 0.0 1.8636
7.6969 0.0 1.8636
7.8996 0.0 1.8636
8.1023 0.0 1.8636
8.305 0.0 1.8636
8.5078 0.0 1.8636
7.5765 0.0 2.0008
7.7646 0.0 2.0008
7.9526 0.0 2.0008
8.1407 0.0 2.0008
8.3287 0.0 2.0008
8.5168 0.0 2.0008
7.6498 0.0 2.1229
7.8248 0.0 2.1229
7.9998 0.0 2.1229
8.1748 0.0 2.1229
8.3498 0.0 2.1229
8.5248 0.0 2.1229
7.7132 0.0 2.2286
7.8769 0.0 2.2286
8.0406 0.0 2.2286
8.2043 0.0 2.2286
8.368 0.0 2.2286
8.5317 0.0 2.2286
7.766 0.0 2.3167
7.9203 0.0 2.3167
8.0746 0.0 2.3167
8.2289 0.0 2.3167
8.3832 0.0 2.3167
8.5375 0.0 2.3167
7.8078 0.0 2.3863
7.9546 0.0 2.3863
8.1015 0.0 2.3863
8.2483 0.0 2.3863
8.3952 0.0 2.3863
8.542 0.0 2.3863
7.8379 0.0 2.4365
7.9794 0.0 2.4365
8.1209 0.0 2.4365
8.2623 0.0 2.4365
8.4038 0.0 2.4365
8.5453 0.0 2.4365
7.8561 0.0 2.4668
7.9943 0.0 2.4668
8.1326 0.0 2.4668
8.2708 0.0 2.4668
8.4091 0.0 2.4668
8.5473 0.0 2.4668
7.8622 0.0 2.477
7.9993 0.0 2.477
8.1365 0.0 2.477
8.2737 0.0 2.477
8.4108 0.0 2.477
8.548 0.0 2.477

CELLS 75 375
4 0 1 7 6
4 1 2 8 7
4 2 3 9 8
4 3 4 10 9
4 4 5 11 10
4 6 7 13 12
4 7 8 14 13
4 8 9 15 14
4 9 10 16 15
4 10 11 17 16
4 12 13 19 18
4 13 14 20 19
4 14 15 21 20
4 15 16 22 21
4 16 17 23 22
4 18 19 25 24
4 19 20 26 25
4 20 21 27 26
4 21 22 28 27
4 22 23 29 28
4 24 25 31 30
4 25 26 32 31
4 26 27 33 32
4 27 28 34 33
4 28 29 35 34
4 30 31 37 36
4 31 32 38 37
4 32 33 39 38
4 33 34 40 39
4 34 35 41 40
4 36 37 43 42
4 37 38 44 43
4 38 39 45 44
4 39 40 46 45
4 40 41 47 46
4 42 43 49 48
4 43 44 50 49
4 44 45 51 50
4 45 46 52 51
4 46 47 53 52
4 48 49 55 54
4 49 50 56 55
4 50 51 57 56
4 51 52 58 57
4 52 53 59 58
4 54 55 61 60
4 55 56 62 61
4 56 57 63 62
4 57 58 64 63
4 58 59 65 64
4 60 61 67 66
4 61 62 68 67
4 62 63 69 68
4 63 64 70 69
4 64 65 71 70
4 66 67 73 72
4 67 68 74 73
4 68 69 75 74
4 69 70 76 75
4 70 71 77 76
4 72 73 79 78
4 73 74 80 79
4 74 75 81 80
4 75 76 82 81
4 76 77 83 82
4 78 79 85 84
4 79 80 86 85
4 80 81 87 86
4 81 82 88 87
4 82 83 89 88
4 84 85 91 90
4 85 86 92 91
4 86 87 93 92
4 87 88 94 93
4 88 89 95 94

CELL_TYPES 75
9
9
9
9
9
9
9
9
9
9
9
9
9
9
9
9
9
9
9
9
9
9
9
9
9
9
9
9
9
9
9
9
9
9
9
9
9
9
9
9
9
9
9
9
9
9
9
9
9
9
9
9
9
9
9
9
9
9
9
9
9
9
9
9
9
9
9
9
9
9
9
9
9
9
9

CELL_DATA 75
SCALARS i float 1
LOOKUP_TABLE default
0
1
2
3
4
5
6
7
8
9
10
11
12
13
14
15
16
17
18
19
20
21
22
23
24
25
26
27
28
29
30
31
32
33
34
35
36
37
38
39
40
41
42
43
44
45
46
47
48
49
50
51
52
53
54
55
56
57
58
59
60
61
62
63
64
65
66
67
68
69
70
71
72
73
74