# vtk DataFile Version 4.0
SUAVE Model of PROWIM Wing 
ASCII
DATASET UNSTRUCTURED_GRID

POINTS 96 float
7.7 -0.0 0.25
7.8538 -0.0 0.25
8.0076 -0.0 0.25
8.1614 -0.0 0.25
8.3152 -0.0 0.25
8.469 -0.0 0.25
7.7 -0.1725 0.25
7.8538 -0.1725 0.25
8.0076 -0.1725 0.25
8.1614 -0.1725 0.25
8.3152 -0.1725 0.25
8.469 -0.1725 0.25
7.7 -0.3431 0.25
7.8538 -0.3431 0.25
8.0076 -0.3431 0.25
8.1614 -0.3431 0.25
8.3152 -0.3431 0.25
8.469 -0.3431 0.25
7.7 -0.5099 0.25
7.8538 -0.5099 0.25
8.0076 -0.5099 0.25
8.1614 -0.5099 0.25
8.3152 -0.5099 0.25
8.469 -0.5099 0.25
7.7 -0.6711 0.25
7.8538 -0.6711 0.25
8.0076 -0.6711 0.25
8.1614 -0.6711 0.25
8.3152 -0.6711 0.25
8.469 -0.6711 0.25
7.7 -0.825 0.25
7.8538 -0.825 0.25
8.0076 -0.825 0.25
8.1614 -0.825 0.25
8.3152 -0.825 0.25
8.469 -0.825 0.25
7.7 -0.9698 0.25
7.8538 -0.9698 0.25
8.0076 -0.9698 0.25
8.1614 -0.9698 0.25
8.3152 -0.9698 0.25
8.469 -0.9698 0.25
7.7 -1.1041 0.25
7.8538 -1.1041 0.25
8.0076 -1.1041 0.25
8.1614 -1.1041 0.25
8.3152 -1.1041 0.25
8.469 -1.1041 0.25
7.7 -1.2262 0.25
7.8538 -1.2262 0.25
8.0076 -1.2262 0.25
8.1614 -1.2262 0.25
8.3152 -1.2262 0.25
8.469 -1.2262 0.25
7.7 -1.3349 0.25
7.8538 -1.3349 0.25
8.0076 -1.3349 0.25
8.1614 -1.3349 0.25
8.3152 -1.3349 0.25
8.469 -1.3349 0.25
7.7 -1.4289 0.25
7.8538 -1.4289 0.25
8.0076 -1.4289 0.25
8.1614 -1.4289 0.25
8.3152 -1.4289 0.25
8.469 -1.4289 0.25
7.7 -1.5074 0.25
7.8538 -1.5074 0.25
8.0076 -1.5074 0.25
8.1614 -1.5074 0.25
8.3152 -1.5074 0.25
8.469 -1.5074 0.25
7.7 -1.5692 0.25
7.8538 -1.5692 0.25
8.0076 -1.5692 0.25
8.1614 -1.5692 0.25
8.3152 -1.5692 0.25
8.469 -1.5692 0.25
7.7 -1.6139 0.25
7.8538 -1.6139 0.25
8.0076 -1.6139 0.25
8.1614 -1.6139 0.25
8.3152 -1.6139 0.25
8.469 -1.6139 0.25
7.7 -1.641 0.25
7.8538 -1.641 0.25
8.0076 -1.641 0.25
8.1614 -1.641 0.25
8.3152 -1.641 0.25
8.469 -1.641 0.25
7.7 -1.65 0.25
7.8538 -1.65 0.25
8.0076 -1.65 0.25
8.1614 -1.65 0.25
8.3152 -1.65 0.25
8.469 -1.65 0.25

CELLS 75 375
4 0 1 7 6
4 1 2 8 7
4 2 3 9 8
4 3 4 10 9
4 4 5 11 10
4 6 7 13 12
4 7 8 14 13
4 8 9 15 14
4 9 10 16 15
4 10 11 17 16
4 12 13 19 18
4 13 14 20 19
4 14 15 21 20
4 15 16 22 21
4 16 17 23 22
4 18 19 25 24
4 19 20 26 25
4 20 21 27 26
4 21 22 28 27
4 22 23 29 28
4 24 25 31 30
4 25 26 32 31
4 26 27 33 32
4 27 28 34 33
4 28 29 35 34
4 30 31 37 36
4 31 32 38 37
4 32 33 39 38
4 33 34 40 39
4 34 35 41 40
4 36 37 43 42
4 37 38 44 43
4 38 39 45 44
4 39 40 46 45
4 40 41 47 46
4 42 43 49 48
4 43 44 50 49
4 44 45 51 50
4 45 46 52 51
4 46 47 53 52
4 48 49 55 54
4 49 50 56 55
4 50 51 57 56
4 51 52 58 57
4 52 53 59 58
4 54 55 61 60
4 55 56 62 61
4 56 57 63 62
4 57 58 64 63
4 58 59 65 64
4 60 61 67 66
4 61 62 68 67
4 62 63 69 68
4 63 64 70 69
4 64 65 71 70
4 66 67 73 72
4 67 68 74 73
4 68 69 75 74
4 69 70 76 75
4 70 71 77 76
4 72 73 79 78
4 73 74 80 79
4 74 75 81 80
4 75 76 82 81
4 76 77 83 82
4 78 79 85 84
4 79 80 86 85
4 80 81 87 86
4 81 82 88 87
4 82 83 89 88
4 84 85 91 90
4 85 86 92 91
4 86 87 93 92
4 87 88 94 93
4 88 89 95 94

CELL_TYPES 75
9
9
9
9
9
9
9
9
9
9
9
9
9
9
9
9
9
9
9
9
9
9
9
9
9
9
9
9
9
9
9
9
9
9
9
9
9
9
9
9
9
9
9
9
9
9
9
9
9
9
9
9
9
9
9
9
9
9
9
9
9
9
9
9
9
9
9
9
9
9
9
9
9
9
9

CELL_DATA 75
SCALARS i float 1
LOOKUP_TABLE default
0
1
2
3
4
5
6
7
8
9
10
11
12
13
14
15
16
17
18
19
20
21
22
23
24
25
26
27
28
29
30
31
32
33
34
35
36
37
38
39
40
41
42
43
44
45
46
47
48
49
50
51
52
53
54
55
56
57
58
59
60
61
62
63
64
65
66
67
68
69
70
71
72
73
74