# vtk DataFile Version 4.0
SUAVE Model of PROWIM Wing 
ASCII
DATASET UNSTRUCTURED_GRID

POINTS 96 float
2.93 -0.0 1.01
3.2228 -0.0 1.0178
3.5148 -0.0 1.0106
3.8064 -0.0 0.9954
4.0976 -0.0 0.972
4.388 -0.0 0.9336
2.93 -0.5958 1.01
3.2228 -0.5958 1.0188
3.5148 -0.5958 1.0126
3.8065 -0.5958 0.9983
4.0977 -0.5958 0.9759
4.3882 -0.5958 0.9385
2.93 -1.1851 1.01
3.2227 -1.1851 1.0197
3.5148 -1.1851 1.0146
3.8065 -1.1851 1.0012
4.0978 -1.1851 0.9798
4.3885 -1.1851 0.9433
2.93 -1.7614 1.01
3.2227 -1.7614 1.0207
3.5148 -1.7614 1.0164
3.8065 -1.7614 1.0041
4.0979 -1.7614 0.9836
4.3887 -1.7614 0.9481
2.93 -2.3184 1.01
3.2227 -2.3184 1.0216
3.5148 -2.3184 1.0183
3.8066 -2.3184 1.0068
4.098 -2.3184 0.9873
4.3889 -2.3184 0.9526
2.93 -3.0997 1.01
3.2226 -3.0997 1.0229
3.5147 -3.0997 1.0209
3.8066 -3.0997 1.0107
4.0981 -3.0997 0.9924
4.3891 -3.0997 0.959
2.943 -3.3504 1.01
3.2252 -3.3504 1.0234
3.5069 -3.3504 1.0224
3.7883 -3.3504 1.0135
4.0695 -3.3504 0.9968
4.3502 -3.3504 0.9656
2.9671 -3.814 1.01
3.2299 -3.814 1.0241
3.4923 -3.814 1.0248
3.7545 -3.814 1.0181
4.0166 -3.814 1.0043
4.2783 -3.814 0.9768
2.989 -4.2359 1.01
3.2341 -4.2359 1.0245
3.479 -4.2359 1.0266
3.7238 -4.2359 1.0218
3.9684 -4.2359 1.0102
4.2127 -4.2359 0.9859
3.0085 -4.6114 1.01
3.2379 -4.6114 1.0248
3.4672 -4.6114 1.0278
3.6964 -4.6114 1.0245
3.9254 -4.6114 1.0148
4.1543 -4.6114 0.9933
3.0254 -4.9363 1.01
3.2412 -4.9363 1.0248
3.457 -4.9363 1.0287
3.6727 -4.9363 1.0265
3.8883 -4.9363 1.0183
4.1038 -4.9363 0.9989
3.0395 -5.2072 1.01
3.244 -5.2072 1.0248
3.4485 -5.2072 1.0292
3.6529 -5.2072 1.0278
3.8573 -5.2072 1.0208
4.0616 -5.2072 1.0032
3.0506 -5.421 1.01
3.2462 -5.421 1.0247
3.4417 -5.421 1.0295
3.6373 -5.421 1.0287
3.8328 -5.421 1.0226
4.0283 -5.421 1.0063
3.0586 -5.5754 1.01
3.2477 -5.5754 1.0246
3.4369 -5.5754 1.0296
3.626 -5.5754 1.0293
3.8151 -5.5754 1.0238
4.0043 -5.5754 1.0084
3.0634 -5.6688 1.01
3.2487 -5.6688 1.0246
3.434 -5.6688 1.0297
3.6192 -5.6688 1.0296
3.8045 -5.6688 1.0244
3.9897 -5.6688 1.0096
3.065 -5.7 1.01
3.249 -5.7 1.0245
3.433 -5.7 1.0297
3.6169 -5.7 1.0297
3.8009 -5.7 1.0246
3.9848 -5.7 1.01

CELLS 75 375
4 0 1 7 6
4 1 2 8 7
4 2 3 9 8
4 3 4 10 9
4 4 5 11 10
4 6 7 13 12
4 7 8 14 13
4 8 9 15 14
4 9 10 16 15
4 10 11 17 16
4 12 13 19 18
4 13 14 20 19
4 14 15 21 20
4 15 16 22 21
4 16 17 23 22
4 18 19 25 24
4 19 20 26 25
4 20 21 27 26
4 21 22 28 27
4 22 23 29 28
4 24 25 31 30
4 25 26 32 31
4 26 27 33 32
4 27 28 34 33
4 28 29 35 34
4 30 31 37 36
4 31 32 38 37
4 32 33 39 38
4 33 34 40 39
4 34 35 41 40
4 36 37 43 42
4 37 38 44 43
4 38 39 45 44
4 39 40 46 45
4 40 41 47 46
4 42 43 49 48
4 43 44 50 49
4 44 45 51 50
4 45 46 52 51
4 46 47 53 52
4 48 49 55 54
4 49 50 56 55
4 50 51 57 56
4 51 52 58 57
4 52 53 59 58
4 54 55 61 60
4 55 56 62 61
4 56 57 63 62
4 57 58 64 63
4 58 59 65 64
4 60 61 67 66
4 61 62 68 67
4 62 63 69 68
4 63 64 70 69
4 64 65 71 70
4 66 67 73 72
4 67 68 74 73
4 68 69 75 74
4 69 70 76 75
4 70 71 77 76
4 72 73 79 78
4 73 74 80 79
4 74 75 81 80
4 75 76 82 81
4 76 77 83 82
4 78 79 85 84
4 79 80 86 85
4 80 81 87 86
4 81 82 88 87
4 82 83 89 88
4 84 85 91 90
4 85 86 92 91
4 86 87 93 92
4 87 88 94 93
4 88 89 95 94

CELL_TYPES 75
9
9
9
9
9
9
9
9
9
9
9
9
9
9
9
9
9
9
9
9
9
9
9
9
9
9
9
9
9
9
9
9
9
9
9
9
9
9
9
9
9
9
9
9
9
9
9
9
9
9
9
9
9
9
9
9
9
9
9
9
9
9
9
9
9
9
9
9
9
9
9
9
9
9
9

CELL_DATA 75
SCALARS i float 1
LOOKUP_TABLE default
0
1
2
3
4
5
6
7
8
9
10
11
12
13
14
15
16
17
18
19
20
21
22
23
24
25
26
27
28
29
30
31
32
33
34
35
36
37
38
39
40
41
42
43
44
45
46
47
48
49
50
51
52
53
54
55
56
57
58
59
60
61
62
63
64
65
66
67
68
69
70
71
72
73
74