# vtk DataFile Version 4.0
SUAVE Model of Fuselage 
ASCII
DATASET UNSTRUCTURED_GRID

POINTS 288 float
0.0 0.005 0.0
0.0 0.0048 0.0013
0.0 0.0043 0.0026
0.0 0.0034 0.0037
0.0 0.0023 0.0044
0.0 0.001 0.0049
0.0 -0.0003 0.005
0.0 -0.0017 0.0047
0.0 -0.0029 0.0041
0.0 -0.0039 0.0032
0.0 -0.0046 0.002
0.0 -0.005 0.0007
0.0 -0.005 -0.0007
0.0 -0.0046 -0.002
0.0 -0.0039 -0.0032
0.0 -0.0029 -0.0041
0.0 -0.0017 -0.0047
0.0 -0.0003 -0.005
0.0 0.001 -0.0049
0.0 0.0023 -0.0044
0.0 0.0034 -0.0037
0.0 0.0043 -0.0026
0.0 0.0048 -0.0013
0.0 0.005 -0.0
0.0614 0.139 0.0211
0.0614 0.1307 0.0577
0.0614 0.108 0.0868
0.0614 0.077 0.1035
0.0614 0.045 0.108
0.0614 0.0176 0.1058
0.0614 -0.0057 0.1047
0.0614 -0.0306 0.1072
0.0614 -0.0607 0.1071
0.0614 -0.0931 0.0968
0.0614 -0.1209 0.0736
0.0614 -0.1369 0.0399
0.0614 -0.1369 0.0023
0.0614 -0.1209 -0.0314
0.0614 -0.0931 -0.0546
0.0614 -0.0607 -0.0649
0.0614 -0.0306 -0.065
0.0614 -0.0057 -0.0625
0.0614 0.0176 -0.0635
0.0614 0.045 -0.0658
0.0614 0.077 -0.0613
0.0614 0.108 -0.0446
0.0614 0.1307 -0.0155
0.0614 0.139 0.0211
0.1638 0.2183 0.0103
0.1638 0.2064 0.0681
0.1638 0.1738 0.116
0.1638 0.1282 0.1475
0.1638 0.0789 0.1625
0.1638 0.0325 0.1664
0.1638 -0.0107 0.1667
0.1638 -0.0551 0.1653
0.1638 -0.1035 0.1568
0.1638 -0.1521 0.134
0.1638 -0.1923 0.0938
0.1638 -0.2153 0.0399
0.1638 -0.2153 -0.0193
0.1638 -0.1923 -0.0733
0.1638 -0.1521 -0.1134
0.1638 -0.1035 -0.1363
0.1638 -0.0551 -0.1448
0.1638 -0.0107 -0.1462
0.1638 0.0325 -0.1459
0.1638 0.0789 -0.1419
0.1638 0.1282 -0.127
0.1638 0.1738 -0.0955
0.1638 0.2064 -0.0476
0.1638 0.2183 0.0103
0.5323 0.3368 0.0624
0.5323 0.3213 0.1524
0.5323 0.2779 0.2314
0.5323 0.2141 0.2917
0.5323 0.139 0.3306
0.5323 0.0598 0.3503
0.5323 -0.0199 0.354
0.5323 -0.0996 0.3427
0.5323 -0.1774 0.3138
0.5323 -0.248 0.2642
0.5323 -0.3027 0.1939
0.5323 -0.3329 0.1082
0.5323 -0.3329 0.0167
0.5323 -0.3027 -0.0691
0.5323 -0.248 -0.1394
0.5323 -0.1774 -0.1889
0.5323 -0.0996 -0.2179
0.5323 -0.0199 -0.2292
0.5323 0.0598 -0.2255
0.5323 0.139 -0.2058
0.5323 0.2141 -0.1669
0.5323 0.2779 -0.1066
0.5323 0.3213 -0.0276
0.5323 0.3368 0.0624
1.3954 0.5336 0.244
1.3954 0.5137 0.3879
1.3954 0.4556 0.521
1.3954 0.3636 0.6333
1.3954 0.2449 0.7166
1.3954 0.1083 0.7649
1.3954 -0.0363 0.7747
1.3954 -0.1782 0.7454
1.3954 -0.3071 0.679
1.3954 -0.4134 0.5803
1.3954 -0.4892 0.4564
1.3954 -0.5286 0.3166
1.3954 -0.5286 0.1713
1.3954 -0.4892 0.0315
1.3954 -0.4134 -0.0924
1.3954 -0.3071 -0.1911
1.3954 -0.1782 -0.2575
1.3954 -0.0363 -0.2868
1.3954 0.1083 -0.277
1.3954 0.2449 -0.2287
1.3954 0.3636 -0.1454
1.3954 0.4556 -0.0331
1.3954 0.5137 0.1
1.3954 0.5336 0.244
2.0473 0.5915 0.3556
2.0473 0.5736 0.5163
2.0473 0.5186 0.671
2.0473 0.4243 0.81
2.0473 0.2924 0.9199
2.0473 0.1312 0.9868
2.0473 -0.0441 1.0007
2.0473 -0.2146 0.9595
2.0473 -0.3627 0.8695
2.0473 -0.4764 0.7432
2.0473 -0.5509 0.5949
2.0473 -0.5871 0.4363
2.0473 -0.5871 0.2749
2.0473 -0.5509 0.1163
2.0473 -0.4764 -0.032
2.0473 -0.3627 -0.1583
2.0473 -0.2146 -0.2483
2.0473 -0.0441 -0.2895
2.0473 0.1312 -0.2756
2.0473 0.2924 -0.2087
2.0473 0.4243 -0.0988
2.0473 0.5186 0.0402
2.0473 0.5736 0.1949
2.0473 0.5915 0.3556
2.4978 0.5908 0.397
2.4978 0.5762 0.5585
2.4978 0.5286 0.7185
2.4978 0.4401 0.8683
2.4978 0.3078 0.991
2.4978 0.1393 1.0674
2.4978 -0.047 1.0835
2.4978 -0.2271 1.0361
2.4978 -0.3792 0.9343
2.4978 -0.4899 0.7956
2.4978 -0.5571 0.639
2.4978 -0.5872 0.4777
2.4978 -0.5872 0.3163
2.4978 -0.5571 0.1551
2.4978 -0.4899 -0.0015
2.4978 -0.3792 -0.1402
2.4978 -0.2271 -0.2421
2.4978 -0.047 -0.2895
2.4978 0.1393 -0.2734
2.4978 0.3078 -0.197
2.4978 0.4401 -0.0742
2.4978 0.5286 0.0756
2.4978 0.5762 0.2356
2.4978 0.5908 0.397
3.2143 0.5891 0.4484
3.2143 0.5773 0.6101
3.2143 0.5358 0.7742
3.2143 0.4519 0.9323
3.2143 0.3194 1.0647
3.2143 0.1454 1.1483
3.2143 -0.0491 1.1659
3.2143 -0.2365 1.1139
3.2143 -0.3916 1.0032
3.2143 -0.4998 0.855
3.2143 -0.5611 0.6921
3.2143 -0.5863 0.5289
3.2143 -0.5863 0.3678
3.2143 -0.5611 0.2046
3.2143 -0.4998 0.0417
3.2143 -0.3916 -0.1065
3.2143 -0.2365 -0.2172
3.2143 -0.0491 -0.2692
3.2143 0.1454 -0.2515
3.2143 0.3194 -0.168
3.2143 0.4519 -0.0355
3.2143 0.5358 0.1225
3.2143 0.5773 0.2866
3.2143 0.5891 0.4484
4.2585 0.5272 0.3928
4.2585 0.5169 0.5377
4.2585 0.4802 0.6848
4.2585 0.4055 0.827
4.2585 0.2868 0.9463
4.2585 0.1307 1.0216
4.2585 -0.0441 1.0376
4.2585 -0.2125 0.9907
4.2585 -0.3515 0.8909
4.2585 -0.4482 0.7575
4.2585 -0.5026 0.6111
4.2585 -0.5247 0.4649
4.2585 -0.5247 0.3207
4.2585 -0.5026 0.1745
4.2585 -0.4482 0.0282
4.2585 -0.3515 -0.1052
4.2585 -0.2125 -0.205
4.2585 -0.0441 -0.2519
4.2585 0.1307 -0.236
4.2585 0.2868 -0.1607
4.2585 0.4055 -0.0413
4.2585 0.4802 0.1008
4.2585 0.5169 0.248
4.2585 0.5272 0.3928
5.4459 0.4251 0.3157
5.4459 0.411 0.4309
5.4459 0.3687 0.54
5.4459 0.2988 0.6357
5.4459 0.2041 0.7097
5.4459 0.0911 0.754
5.4459 -0.0306 0.7632
5.4459 -0.1494 0.736
5.4459 -0.2543 0.6759
5.4459 -0.3371 0.59
5.4459 -0.3934 0.4866
5.4459 -0.4216 0.3737
5.4459 -0.4216 0.2578
5.4459 -0.3934 0.1449
5.4459 -0.3371 0.0415
5.4459 -0.2543 -0.0445
5.4459 -0.1494 -0.1045
5.4459 -0.0306 -0.1317
5.4459 0.0911 -0.1225
5.4459 0.2041 -0.0782
5.4459 0.2988 -0.0042
5.4459 0.3687 0.0915
5.4459 0.411 0.2006
5.4459 0.4251 0.3157
8.3122 0.1006 0.3831
8.3122 0.1007 0.4113
8.3122 0.098 0.4427
8.3122 0.0866 0.4759
8.3122 0.0633 0.5054
8.3122 0.0294 0.5245
8.3122 -0.01 0.5286
8.3122 -0.0474 0.5166
8.3122 -0.0765 0.4915
8.3122 -0.0937 0.4593
8.3122 -0.1001 0.4266
8.3122 -0.1007 0.3969
8.3122 -0.1007 0.3693
8.3122 -0.1001 0.3396
8.3122 -0.0937 0.3069
8.3122 -0.0765 0.2747
8.3122 -0.0474 0.2496
8.3122 -0.01 0.2376
8.3122 0.0294 0.2417
8.3122 0.0633 0.2609
8.3122 0.0866 0.2903
8.3122 0.098 0.3235
8.3122 0.1007 0.3549
8.3122 0.1006 0.3831
8.4379 0.0603 0.404
8.4379 0.0582 0.4203
8.4379 0.0521 0.4356
8.4379 0.042 0.4489
8.4379 0.0286 0.4591
8.4379 0.0127 0.4652
8.4379 -0.0043 0.4664
8.4379 -0.0209 0.4627
8.4379 -0.0357 0.4545
8.4379 -0.0475 0.4426
8.4379 -0.0556 0.4281
8.4379 -0.0598 0.4122
8.4379 -0.0598 0.3958
8.4379 -0.0556 0.3798
8.4379 -0.0475 0.3653
8.4379 -0.0357 0.3534
8.4379 -0.0209 0.3452
8.4379 -0.0043 0.3415
8.4379 0.0127 0.3428
8.4379 0.0286 0.3488
8.4379 0.042 0.359
8.4379 0.0521 0.3723
8.4379 0.0582 0.3877
8.4379 0.0603 0.404

CELLS 264 1320
4 0 1 25 24
4 1 2 26 25
4 2 3 27 26
4 3 4 28 27
4 4 5 29 28
4 5 6 30 29
4 6 7 31 30
4 7 8 32 31
4 8 9 33 32
4 9 10 34 33
4 10 11 35 34
4 11 12 36 35
4 12 13 37 36
4 13 14 38 37
4 14 15 39 38
4 15 16 40 39
4 16 17 41 40
4 17 18 42 41
4 18 19 43 42
4 19 20 44 43
4 20 21 45 44
4 21 22 46 45
4 22 23 47 46
4 23 0 24 47
4 24 25 49 48
4 25 26 50 49
4 26 27 51 50
4 27 28 52 51
4 28 29 53 52
4 29 30 54 53
4 30 31 55 54
4 31 32 56 55
4 32 33 57 56
4 33 34 58 57
4 34 35 59 58
4 35 36 60 59
4 36 37 61 60
4 37 38 62 61
4 38 39 63 62
4 39 40 64 63
4 40 41 65 64
4 41 42 66 65
4 42 43 67 66
4 43 44 68 67
4 44 45 69 68
4 45 46 70 69
4 46 47 71 70
4 47 24 48 71
4 48 49 73 72
4 49 50 74 73
4 50 51 75 74
4 51 52 76 75
4 52 53 77 76
4 53 54 78 77
4 54 55 79 78
4 55 56 80 79
4 56 57 81 80
4 57 58 82 81
4 58 59 83 82
4 59 60 84 83
4 60 61 85 84
4 61 62 86 85
4 62 63 87 86
4 63 64 88 87
4 64 65 89 88
4 65 66 90 89
4 66 67 91 90
4 67 68 92 91
4 68 69 93 92
4 69 70 94 93
4 70 71 95 94
4 71 48 72 95
4 72 73 97 96
4 73 74 98 97
4 74 75 99 98
4 75 76 100 99
4 76 77 101 100
4 77 78 102 101
4 78 79 103 102
4 79 80 104 103
4 80 81 105 104
4 81 82 106 105
4 82 83 107 106
4 83 84 108 107
4 84 85 109 108
4 85 86 110 109
4 86 87 111 110
4 87 88 112 111
4 88 89 113 112
4 89 90 114 113
4 90 91 115 114
4 91 92 116 115
4 92 93 117 116
4 93 94 118 117
4 94 95 119 118
4 95 72 96 119
4 96 97 121 120
4 97 98 122 121
4 98 99 123 122
4 99 100 124 123
4 100 101 125 124
4 101 102 126 125
4 102 103 127 126
4 103 104 128 127
4 104 105 129 128
4 105 106 130 129
4 106 107 131 130
4 107 108 132 131
4 108 109 133 132
4 109 110 134 133
4 110 111 135 134
4 111 112 136 135
4 112 113 137 136
4 113 114 138 137
4 114 115 139 138
4 115 116 140 139
4 116 117 141 140
4 117 118 142 141
4 118 119 143 142
4 119 96 120 143
4 120 121 145 144
4 121 122 146 145
4 122 123 147 146
4 123 124 148 147
4 124 125 149 148
4 125 126 150 149
4 126 127 151 150
4 127 128 152 151
4 128 129 153 152
4 129 130 154 153
4 130 131 155 154
4 131 132 156 155
4 132 133 157 156
4 133 134 158 157
4 134 135 159 158
4 135 136 160 159
4 136 137 161 160
4 137 138 162 161
4 138 139 163 162
4 139 140 164 163
4 140 141 165 164
4 141 142 166 165
4 142 143 167 166
4 143 120 144 167
4 144 145 169 168
4 145 146 170 169
4 146 147 171 170
4 147 148 172 171
4 148 149 173 172
4 149 150 174 173
4 150 151 175 174
4 151 152 176 175
4 152 153 177 176
4 153 154 178 177
4 154 155 179 178
4 155 156 180 179
4 156 157 181 180
4 157 158 182 181
4 158 159 183 182
4 159 160 184 183
4 160 161 185 184
4 161 162 186 185
4 162 163 187 186
4 163 164 188 187
4 164 165 189 188
4 165 166 190 189
4 166 167 191 190
4 167 144 168 191
4 168 169 193 192
4 169 170 194 193
4 170 171 195 194
4 171 172 196 195
4 172 173 197 196
4 173 174 198 197
4 174 175 199 198
4 175 176 200 199
4 176 177 201 200
4 177 178 202 201
4 178 179 203 202
4 179 180 204 203
4 180 181 205 204
4 181 182 206 205
4 182 183 207 206
4 183 184 208 207
4 184 185 209 208
4 185 186 210 209
4 186 187 211 210
4 187 188 212 211
4 188 189 213 212
4 189 190 214 213
4 190 191 215 214
4 191 168 192 215
4 192 193 217 216
4 193 194 218 217
4 194 195 219 218
4 195 196 220 219
4 196 197 221 220
4 197 198 222 221
4 198 199 223 222
4 199 200 224 223
4 200 201 225 224
4 201 202 226 225
4 202 203 227 226
4 203 204 228 227
4 204 205 229 228
4 205 206 230 229
4 206 207 231 230
4 207 208 232 231
4 208 209 233 232
4 209 210 234 233
4 210 211 235 234
4 211 212 236 235
4 212 213 237 236
4 213 214 238 237
4 214 215 239 238
4 215 192 216 239
4 216 217 241 240
4 217 218 242 241
4 218 219 243 242
4 219 220 244 243
4 220 221 245 244
4 221 222 246 245
4 222 223 247 246
4 223 224 248 247
4 224 225 249 248
4 225 226 250 249
4 226 227 251 250
4 227 228 252 251
4 228 229 253 252
4 229 230 254 253
4 230 231 255 254
4 231 232 256 255
4 232 233 257 256
4 233 234 258 257
4 234 235 259 258
4 235 236 260 259
4 236 237 261 260
4 237 238 262 261
4 238 239 263 262
4 239 216 240 263
4 240 241 265 264
4 241 242 266 265
4 242 243 267 266
4 243 244 268 267
4 244 245 269 268
4 245 246 270 269
4 246 247 271 270
4 247 248 272 271
4 248 249 273 272
4 249 250 274 273
4 250 251 275 274
4 251 252 276 275
4 252 253 277 276
4 253 254 278 277
4 254 255 279 278
4 255 256 280 279
4 256 257 281 280
4 257 258 282 281
4 258 259 283 282
4 259 260 284 283
4 260 261 285 284
4 261 262 286 285
4 262 263 287 286
4 263 240 264 287

CELL_TYPES 264
9
9
9
9
9
9
9
9
9
9
9
9
9
9
9
9
9
9
9
9
9
9
9
9
9
9
9
9
9
9
9
9
9
9
9
9
9
9
9
9
9
9
9
9
9
9
9
9
9
9
9
9
9
9
9
9
9
9
9
9
9
9
9
9
9
9
9
9
9
9
9
9
9
9
9
9
9
9
9
9
9
9
9
9
9
9
9
9
9
9
9
9
9
9
9
9
9
9
9
9
9
9
9
9
9
9
9
9
9
9
9
9
9
9
9
9
9
9
9
9
9
9
9
9
9
9
9
9
9
9
9
9
9
9
9
9
9
9
9
9
9
9
9
9
9
9
9
9
9
9
9
9
9
9
9
9
9
9
9
9
9
9
9
9
9
9
9
9
9
9
9
9
9
9
9
9
9
9
9
9
9
9
9
9
9
9
9
9
9
9
9
9
9
9
9
9
9
9
9
9
9
9
9
9
9
9
9
9
9
9
9
9
9
9
9
9
9
9
9
9
9
9
9
9
9
9
9
9
9
9
9
9
9
9
9
9
9
9
9
9
9
9
9
9
9
9
9
9
9
9
9
9
9
9
9
9
9
9
9
9
9
9
9
9

CELL_DATA 264
SCALARS i float 1
LOOKUP_TABLE default
0
1
2
3
4
5
6
7
8
9
10
11
12
13
14
15
16
17
18
19
20
21
22
23
24
25
26
27
28
29
30
31
32
33
34
35
36
37
38
39
40
41
42
43
44
45
46
47
48
49
50
51
52
53
54
55
56
57
58
59
60
61
62
63
64
65
66
67
68
69
70
71
72
73
74
75
76
77
78
79
80
81
82
83
84
85
86
87
88
89
90
91
92
93
94
95
96
97
98
99
100
101
102
103
104
105
106
107
108
109
110
111
112
113
114
115
116
117
118
119
120
121
122
123
124
125
126
127
128
129
130
131
132
133
134
135
136
137
138
139
140
141
142
143
144
145
146
147
148
149
150
151
152
153
154
155
156
157
158
159
160
161
162
163
164
165
166
167
168
169
170
171
172
173
174
175
176
177
178
179
180
181
182
183
184
185
186
187
188
189
190
191
192
193
194
195
196
197
198
199
200
201
202
203
204
205
206
207
208
209
210
211
212
213
214
215
216
217
218
219
220
221
222
223
224
225
226
227
228
229
230
231
232
233
234
235
236
237
238
239
240
241
242
243
244
245
246
247
248
249
250
251
252
253
254
255
256
257
258
259
260
261
262
263