# vtk DataFile Version 4.0
SUAVE Model of PROWIM Propeller Wake 
ASCII
DATASET UNSTRUCTURED_GRID

POINTS 1200 float
2.1965 -2.5687 0.9752
2.2206 -2.5819 1.012
2.2433 -2.5952 1.049
2.2635 -2.6086 1.0863
2.2804 -2.6221 1.1239
2.2937 -2.6357 1.1618
2.3036 -2.6494 1.1999
2.31 -2.6632 1.2383
2.3132 -2.677 1.2769
2.3134 -2.691 1.3158
2.311 -2.705 1.3548
2.3061 -2.7191 1.394
2.2991 -2.7332 1.4333
2.2899 -2.7474 1.4728
2.2788 -2.7616 1.5123
2.2656 -2.7759 1.552
2.2502 -2.7901 1.5918
2.232 -2.8045 1.6316
2.2099 -2.8188 1.6716
2.1807 -2.8331 1.7115
2.0432 -2.5 0.9872
2.0674 -2.5 1.0263
2.0901 -2.5 1.0656
2.1102 -2.5 1.1053
2.1271 -2.5 1.1452
2.1405 -2.5 1.1855
2.1503 -2.5 1.2261
2.1567 -2.5 1.2669
2.1599 -2.5 1.308
2.1602 -2.5 1.3494
2.1577 -2.5 1.3909
2.1529 -2.5 1.4326
2.1458 -2.5 1.4745
2.1367 -2.5 1.5165
2.1255 -2.5 1.5586
2.1124 -2.5 1.6008
2.0969 -2.5 1.6432
2.0787 -2.5 1.6856
2.0566 -2.5 1.7281
2.0275 -2.5 1.7706
2.1965 -2.5687 0.9752
2.2206 -2.5819 1.012
2.2433 -2.5952 1.049
2.2635 -2.6086 1.0863
2.2804 -2.6221 1.1239
2.2937 -2.6357 1.1618
2.3036 -2.6494 1.1999
2.31 -2.6632 1.2383
2.3132 -2.677 1.2769
2.3134 -2.691 1.3158
2.311 -2.705 1.3548
2.3061 -2.7191 1.394
2.2991 -2.7332 1.4333
2.2899 -2.7474 1.4728
2.2788 -2.7616 1.5123
2.2656 -2.7759 1.552
2.2502 -2.7901 1.5918
2.232 -2.8045 1.6316
2.2099 -2.8188 1.6716
2.1807 -2.8331 1.7115
2.3497 -2.6293 0.9408
2.3739 -2.6541 0.9709
2.3966 -2.6791 1.0012
2.4167 -2.7043 1.0317
2.4336 -2.7297 1.0625
2.447 -2.7553 1.0935
2.4568 -2.781 1.1248
2.4632 -2.807 1.1562
2.4664 -2.833 1.1878
2.4666 -2.8592 1.2196
2.4642 -2.8856 1.2515
2.4594 -2.912 1.2836
2.4523 -2.9386 1.3157
2.4432 -2.9652 1.348
2.432 -2.9919 1.3804
2.4188 -3.0186 1.4128
2.4034 -3.0455 1.4454
2.3852 -3.0723 1.478
2.3631 -3.0993 1.5106
2.3339 -3.1262 1.5433
2.5029 -2.6747 0.8878
2.5271 -2.7082 0.9078
2.5498 -2.7419 0.9278
2.5699 -2.7759 0.948
2.5868 -2.8102 0.9684
2.6002 -2.8447 0.9889
2.6101 -2.8795 1.0096
2.6165 -2.9144 1.0303
2.6196 -2.9496 1.0512
2.6199 -2.9849 1.0722
2.6175 -3.0204 1.0933
2.6126 -3.056 1.1145
2.6056 -3.0918 1.1358
2.5964 -3.1277 1.1571
2.5853 -3.1636 1.1785
2.5721 -3.1997 1.1999
2.5566 -3.2358 1.2214
2.5384 -3.272 1.2429
2.5163 -3.3083 1.2645
2.4872 -3.3446 1.2861
2.6562 -2.6995 0.8227
2.6804 -2.7378 0.8301
2.703 -2.7762 0.8376
2.7232 -2.815 0.8451
2.7401 -2.8541 0.8526
2.7535 -2.8934 0.8603
2.7633 -2.933 0.8679
2.7697 -2.9729 0.8757
2.7729 -3.0129 0.8834
2.7731 -3.0532 0.8912
2.7707 -3.0936 0.8991
2.7659 -3.1342 0.9069
2.7588 -3.1749 0.9148
2.7497 -3.2157 0.9228
2.7385 -3.2567 0.9307
2.7253 -3.2977 0.9386
2.7099 -3.3389 0.9466
2.6917 -3.3801 0.9546
2.6696 -3.4213 0.9626
2.6404 -3.4626 0.9706
2.8094 -2.7008 0.753
2.8336 -2.7393 0.747
2.8563 -2.778 0.741
2.8764 -2.817 0.735
2.8933 -2.8562 0.7289
2.9067 -2.8958 0.7228
2.9165 -2.9355 0.7167
2.9229 -2.9755 0.7105
2.9261 -3.0157 0.7043
2.9264 -3.0561 0.6981
2.9239 -3.0966 0.6918
2.9191 -3.1373 0.6855
2.912 -3.1782 0.6792
2.9029 -3.2191 0.6729
2.8918 -3.2602 0.6665
2.8786 -3.3013 0.6602
2.8631 -3.3425 0.6538
2.8449 -3.3838 0.6474
2.8228 -3.4252 0.641
2.7937 -3.4666 0.6346
2.9627 -2.6785 0.6869
2.9868 -2.7127 0.6683
3.0095 -2.747 0.6496
3.0297 -2.7816 0.6308
3.0466 -2.8164 0.6119
3.0599 -2.8514 0.5928
3.0698 -2.8867 0.5737
3.0762 -2.9221 0.5544
3.0794 -2.9577 0.5351
3.0796 -2.9934 0.5156
3.0772 -3.0293 0.4961
3.0723 -3.0653 0.4765
3.0653 -3.1015 0.4569
3.0561 -3.1377 0.4371
3.045 -3.174 0.4174
3.0318 -3.2104 0.3976
3.0164 -3.2468 0.3778
2.9982 -3.2833 0.3579
2.9761 -3.3199 0.3381
2.9469 -3.3565 0.3182
3.1159 -2.6352 0.6323
3.1401 -2.661 0.6033
3.1628 -2.687 0.5742
3.1829 -2.7131 0.5448
3.1998 -2.7394 0.5153
3.2132 -2.7658 0.4857
3.223 -2.7924 0.4558
3.2294 -2.8191 0.4259
3.2326 -2.8459 0.3958
3.2329 -2.8728 0.3655
3.2304 -2.8999 0.3352
3.2256 -2.927 0.3048
3.2185 -2.9542 0.2742
3.2094 -2.9814 0.2437
3.1982 -3.0087 0.213
3.1851 -3.0361 0.1823
3.1696 -3.0635 0.1515
3.1514 -3.091 0.1207
3.1293 -3.1185 0.0899
3.1002 -3.146 0.059
3.2692 -2.5759 0.5955
3.2933 -2.5904 0.5596
3.316 -2.605 0.5235
3.3362 -2.6196 0.4872
3.353 -2.6343 0.4506
3.3664 -2.6491 0.414
3.3763 -2.6639 0.3771
3.3827 -2.6788 0.3401
3.3859 -2.6938 0.3029
3.3861 -2.7089 0.2656
3.3837 -2.7239 0.2281
3.3788 -2.7391 0.1906
3.3718 -2.7542 0.153
3.3626 -2.7694 0.1153
3.3515 -2.7846 0.0775
3.3383 -2.7999 0.0397
3.3228 -2.8151 0.0018
3.3046 -2.8304 -0.0362
3.2825 -2.8457 -0.0742
3.2534 -2.861 -0.1122
3.4224 -2.5077 0.5809
3.4466 -2.5092 0.5423
3.4693 -2.5107 0.5035
3.4894 -2.5122 0.4646
3.5063 -2.5137 0.4254
3.5197 -2.5152 0.3861
3.5295 -2.5167 0.3467
3.5359 -2.5182 0.307
3.5391 -2.5197 0.2673
3.5393 -2.5212 0.2274
3.5369 -2.5228 0.1874
3.5321 -2.5243 0.1474
3.525 -2.5258 0.1072
3.5159 -2.5274 0.067
3.5047 -2.5289 0.0267
3.4915 -2.5304 -0.0137
3.4761 -2.532 -0.0541
3.4579 -2.5335 -0.0945
3.4358 -2.5351 -0.135
3.4066 -2.5366 -0.1755
3.5756 -2.4387 0.5903
3.5998 -2.427 0.5535
3.6225 -2.4153 0.5167
3.6426 -2.4036 0.4797
3.6595 -2.3919 0.4426
3.6729 -2.3801 0.4053
3.6827 -2.3682 0.3679
3.6891 -2.3564 0.3305
3.6923 -2.3445 0.2929
3.6926 -2.3326 0.2552
3.6902 -2.3206 0.2175
3.6853 -2.3086 0.1797
3.6782 -2.2966 0.1418
3.6691 -2.2846 0.1039
3.658 -2.2726 0.0659
3.6448 -2.2606 0.0279
3.6293 -2.2485 -0.0102
3.6111 -2.2364 -0.0483
3.589 -2.2244 -0.0864
3.5599 -2.2123 -0.1245
3.7289 -2.3768 0.6224
3.7531 -2.3535 0.5919
3.7757 -2.3302 0.5613
3.7959 -2.3068 0.5306
3.8128 -2.2833 0.4999
3.8262 -2.2598 0.469
3.836 -2.2363 0.4381
3.8424 -2.2127 0.4072
3.8456 -2.189 0.3762
3.8458 -2.1653 0.3451
3.8434 -2.1416 0.314
3.8385 -2.1179 0.2829
3.8315 -2.0941 0.2517
3.8224 -2.0703 0.2205
3.8112 -2.0465 0.1893
3.798 -2.0227 0.1581
3.7826 -1.9988 0.1268
3.7644 -1.975 0.0955
3.7423 -1.9511 0.0642
3.7131 -1.9272 0.0329
3.8821 -2.3294 0.6736
3.9063 -2.2973 0.6528
3.929 -2.2652 0.632
3.9491 -2.233 0.6112
3.966 -2.2008 0.5903
3.9794 -2.1685 0.5694
3.9892 -2.1362 0.5486
3.9956 -2.1039 0.5276
3.9988 -2.0716 0.5067
3.9991 -2.0392 0.4858
3.9966 -2.0068 0.4648
3.9918 -1.9744 0.4438
3.9847 -1.942 0.4228
3.9756 -1.9096 0.4018
3.9645 -1.8771 0.3808
3.9513 -1.8447 0.3598
3.9358 -1.8122 0.3388
3.9176 -1.7797 0.3178
3.8955 -1.7473 0.2968
3.8664 -1.7148 0.2757
4.0354 -2.3021 0.7377
4.0595 -2.2651 0.7291
4.0822 -2.228 0.7204
4.1024 -2.1909 0.7118
4.1193 -2.1539 0.7031
4.1326 -2.1168 0.6944
4.1425 -2.0797 0.6858
4.1489 -2.0427 0.6771
4.1521 -2.0057 0.6684
4.1523 -1.9686 0.6598
4.1499 -1.9316 0.6511
4.145 -1.8946 0.6425
4.138 -1.8575 0.6338
4.1288 -1.8205 0.6252
4.1177 -1.7835 0.6165
4.1045 -1.7465 0.6079
4.0891 -1.7095 0.5992
4.0709 -1.6724 0.5906
4.0488 -1.6354 0.5819
4.0196 -1.5984 0.5732
4.1886 -2.2981 0.8074
4.2128 -2.2605 0.8117
4.2355 -2.2229 0.8161
4.2556 -2.1853 0.8204
4.2725 -2.1478 0.8248
4.2859 -2.1103 0.8291
4.2957 -2.0729 0.8334
4.3021 -2.0356 0.8377
4.3053 -1.9983 0.8421
4.3055 -1.961 0.8464
4.3031 -1.9237 0.8507
4.2983 -1.8865 0.855
4.2912 -1.8493 0.8593
4.2821 -1.8121 0.8636
4.2709 -1.7749 0.8679
4.2577 -1.7378 0.8722
4.2423 -1.7006 0.8765
4.2241 -1.6635 0.8808
4.202 -1.6264 0.8851
4.1728 -1.5892 0.8894
4.3419 -2.3179 0.8742
4.366 -2.2841 0.891
4.3887 -2.2503 0.9077
4.4088 -2.2166 0.9244
4.4257 -2.1831 0.941
4.4391 -2.1496 0.9576
4.449 -2.1161 0.9742
4.4554 -2.0828 0.9907
4.4585 -2.0495 1.0072
4.4588 -2.0163 1.0237
4.4564 -1.9831 1.0401
4.4515 -1.9499 1.0566
4.4445 -1.9168 1.073
4.4353 -1.8837 1.0893
4.4242 -1.8507 1.1057
4.411 -1.8177 1.1221
4.3955 -1.7846 1.1384
4.3773 -1.7517 1.1548
4.3552 -1.7187 1.1711
4.3261 -1.6857 1.1875
4.4951 -2.3591 0.9305
4.5193 -2.333 0.9576
4.542 -2.307 0.9846
4.5621 -2.2811 1.0116
4.579 -2.2553 1.0384
4.5924 -2.2296 1.0652
4.6022 -2.2039 1.0918
4.6086 -2.1784 1.1184
4.6118 -2.1528 1.1449
4.612 -2.1274 1.1714
4.6096 -2.102 1.1978
4.6048 -2.0766 1.2242
4.5977 -2.0513 1.2505
4.5886 -2.026 1.2768
4.5774 -2.0008 1.3031
4.5642 -1.9755 1.3293
4.5488 -1.9503 1.3555
4.5306 -1.9251 1.3817
4.5085 -1.8999 1.4079
4.4793 -1.8748 1.4341
4.6483 -2.4169 0.9694
4.6725 -2.4016 1.0037
4.6952 -2.3863 1.0378
4.7153 -2.3711 1.0718
4.7322 -2.356 1.1056
4.7456 -2.3409 1.1393
4.7554 -2.3258 1.1728
4.7618 -2.3109 1.2062
4.765 -2.2959 1.2396
4.7653 -2.2811 1.2728
4.7628 -2.2662 1.306
4.758 -2.2514 1.339
4.7509 -2.2366 1.3721
4.7418 -2.2218 1.405
4.7307 -2.2071 1.438
4.7175 -2.1924 1.4709
4.702 -2.1776 1.5037
4.6838 -2.1629 1.5365
4.6617 -2.1482 1.5693
4.6326 -2.1336 1.6021
4.8016 -2.4845 0.9866
4.8257 -2.4817 1.0239
4.8484 -2.4788 1.0611
4.8686 -2.476 1.0981
4.8855 -2.4732 1.1349
4.8989 -2.4704 1.1715
4.9087 -2.4676 1.208
4.9151 -2.4648 1.2443
4.9183 -2.4621 1.2804
4.9185 -2.4593 1.3165
4.9161 -2.4565 1.3525
4.9112 -2.4538 1.3884
4.9042 -2.4511 1.4242
4.895 -2.4483 1.4599
4.8839 -2.4456 1.4956
4.8707 -2.4429 1.5313
4.8553 -2.4402 1.5669
4.8371 -2.4374 1.6024
4.815 -2.4347 1.638
4.7858 -2.432 1.6735
4.9548 -2.5539 0.9799
4.979 -2.5638 1.016
5.0017 -2.5737 1.0518
5.0218 -2.5835 1.0875
5.0387 -2.5933 1.1229
5.0521 -2.603 1.1582
5.0619 -2.6126 1.1933
5.0683 -2.6223 1.2283
5.0715 -2.6318 1.2631
5.0718 -2.6414 1.2978
5.0693 -2.6509 1.3324
5.0645 -2.6604 1.3669
5.0574 -2.6699 1.4013
5.0483 -2.6793 1.4357
5.0371 -2.6888 1.47
5.024 -2.6982 1.5042
5.0085 -2.7076 1.5384
4.9903 -2.717 1.5726
4.9682 -2.7264 1.6067
4.9391 -2.7358 1.6409
5.1081 -2.617 0.9502
5.1322 -2.6385 0.9807
5.1549 -2.6598 1.0111
5.1751 -2.6811 1.0412
5.1919 -2.7022 1.0712
5.2053 -2.7232 1.101
5.2152 -2.7441 1.1307
5.2216 -2.7649 1.1603
5.2248 -2.7856 1.1897
5.225 -2.8062 1.219
5.2226 -2.8268 1.2482
5.2177 -2.8473 1.2773
5.2107 -2.8677 1.3064
5.2015 -2.8881 1.3354
5.1904 -2.9085 1.3643
5.1772 -2.9289 1.3932
5.1617 -2.9492 1.4221
5.1435 -2.9695 1.451
5.1215 -2.9898 1.4798
5.0923 -3.01 1.5085
5.2613 -2.6662 0.9008
5.2855 -2.6968 0.9223
5.3082 -2.7271 0.9436
5.3283 -2.7572 0.9648
5.3452 -2.7872 0.9858
5.3586 -2.817 1.0068
5.3684 -2.8466 1.0276
5.3748 -2.876 1.0483
5.378 -2.9054 1.0689
5.3782 -2.9346 1.0894
5.3758 -2.9637 1.1099
5.371 -2.9928 1.1303
5.3639 -3.0218 1.1507
5.3548 -3.0507 1.171
5.3436 -3.0795 1.1913
5.3304 -3.1083 1.2115
5.315 -3.1371 1.2318
[...]
CELL_DATA 1102
SCALARS circulation float 1
LOOKUP_TABLE default
9.84402114484232
12.546448365999668
15.788179283051354
18.687004562215556
21.154890738426808
23.3432025035471
25.219119627440048
26.76247062733539
27.961208853204994
28.80763131037628
29.295154171556593
29.415358307589223
29.154873125398865
28.491633519706554
27.38942729968163
25.788171037388587
23.58372224985797
20.576822244886102
16.291882626266478
9.84402114484232
12.546448365999668
15.788179283051354
18.687004562215556
21.154890738426808
23.3432025035471
25.219119627440048
26.76247062733539
27.961208853204994
28.80763131037628
29.295154171556593
29.415358307589223
29.154873125398865
28.491633519706554
27.38942729968163
25.788171037388587
23.58372224985797
20.576822244886102
16.291882626266478
9.84402114484232
12.546448365999668
15.788179283051354
18.687004562215556
21.154890738426808
23.3432025035471
25.219119627440048
26.76247062733539
27.961208853204994
28.80763131037628
29.295154171556593
29.415358307589223
29.154873125398865
28.491633519706554
27.38942729968163
25.788171037388587
23.58372224985797
20.576822244886102
16.291882626266478
9.84402114484232
12.546448365999668
15.788179283051354
18.687004562215556
21.154890738426808
23.3432025035471
25.219119627440048
26.76247062733539
27.961208853204994
28.80763131037628
29.295154171556593
29.415358307589223
29.154873125398865
28.491633519706554
27.38942729968163
25.788171037388587
23.58372224985797
20.576822244886102
16.291882626266478
9.84402114484232
12.546448365999668
15.788179283051354
18.687004562215556
21.154890738426808
23.3432025035471
25.219119627440048
26.76247062733539
27.961208853204994
28.80763131037628
29.295154171556593
29.415358307589223
29.154873125398865
28.491633519706554
27.38942729968163
25.788171037388587
23.58372224985797
20.576822244886102
16.291882626266478
9.84402114484232
12.546448365999668
15.788179283051354
18.687004562215556
21.154890738426808
23.3432025035471
25.219119627440048
26.76247062733539
27.961208853204994
28.80763131037628
29.295154171556593
29.415358307589223
29.154873125398865
28.491633519706554
27.38942729968163
25.788171037388587
23.58372224985797
20.576822244886102
16.291882626266478
9.84402114484232
12.546448365999668
15.788179283051354
18.687004562215556
21.154890738426808
23.3432025035471
25.219119627440048
26.76247062733539
27.961208853204994
28.80763131037628
29.295154171556593
29.415358307589223
29.154873125398865
28.491633519706554
27.38942729968163
25.788171037388587
23.58372224985797
20.576822244886102
16.291882626266478
9.84402114484232
12.546448365999668
15.788179283051354
18.687004562215556
21.154890738426808
23.3432025035471
25.219119627440048
26.76247062733539
27.961208853204994
28.80763131037628
29.295154171556593
29.415358307589223
29.154873125398865
28.491633519706554
27.38942729968163
25.788171037388587
23.58372224985797
20.576822244886102
16.291882626266478
9.84402114484232
12.546448365999668
15.788179283051354
18.687004562215556
21.154890738426808
23.3432025035471
25.219119627440048
26.76247062733539
27.961208853204994
28.80763131037628
29.295154171556593
29.415358307589223
29.154873125398865
28.491633519706554
27.38942729968163
25.788171037388587
23.58372224985797
20.576822244886102
16.291882626266478
9.84402114484232
12.546448365999668
15.788179283051354
18.687004562215556
21.154890738426808
23.3432025035471
25.219119627440048
26.76247062733539
27.961208853204994
28.80763131037628
29.295154171556593
29.415358307589223
29.154873125398865
28.491633519706554
27.38942729968163
25.788171037388587
23.58372224985797
20.576822244886102
16.291882626266478
9.84402114484232
12.546448365999668
15.788179283051354
18.687004562215556
21.154890738426808
23.3432025035471
25.219119627440048
26.76247062733539
27.961208853204994
28.80763131037628
29.295154171556593
29.415358307589223
29.154873125398865
28.491633519706554
27.38942729968163
25.788171037388587
23.58372224985797
20.576822244886102
16.291882626266478
9.84402114484232
12.546448365999668
15.788179283051354
18.687004562215556
21.154890738426808
23.3432025035471
25.219119627440048
26.76247062733539
27.961208853204994
28.80763131037628
29.295154171556593
29.415358307589223
29.154873125398865
28.491633519706554
27.38942729968163
25.788171037388587
23.58372224985797
20.576822244886102
16.291882626266478
9.84402114484232
12.546448365999668
15.788179283051354
18.687004562215556
21.154890738426808
23.3432025035471
25.219119627440048
26.76247062733539
27.961208853204994
28.80763131037628
29.295154171556593
29.415358307589223
29.154873125398865
28.491633519706554
27.38942729968163
25.788171037388587
23.58372224985797
20.576822244886102
16.291882626266478
9.84402114484232
12.546448365999668
15.788179283051354
18.687004562215556
21.154890738426808
23.3432025035471
25.219119627440048
26.76247062733539
27.961208853204994
28.80763131037628
29.295154171556593
29.415358307589223
29.154873125398865
28.491633519706554
27.38942729968163
25.788171037388587
23.58372224985797
20.576822244886102
16.291882626266478
9.84402114484232
12.546448365999668
15.788179283051354
18.687004562215556
21.154890738426808
23.3432025035471
25.219119627440048
26.76247062733539
27.961208853204994
28.80763131037628
29.295154171556593
29.415358307589223
29.154873125398865
28.491633519706554
27.38942729968163
25.788171037388587
23.58372224985797
20.576822244886102
16.291882626266478
9.84402114484232
12.546448365999668
15.788179283051354
18.687004562215556
21.154890738426808
23.3432025035471
25.219119627440048
26.76247062733539
27.961208853204994
28.80763131037628
29.295154171556593
29.415358307589223
29.154873125398865
28.491633519706554
27.38942729968163
25.788171037388587
23.58372224985797
20.576822244886102
16.291882626266478
9.84402114484232
12.546448365999668
15.788179283051354
18.687004562215556
21.154890738426808
23.3432025035471
25.219119627440048
26.76247062733539
27.961208853204994
28.80763131037628
29.295154171556593
29.415358307589223
29.154873125398865
28.491633519706554
27.38942729968163
25.788171037388587
23.58372224985797
20.576822244886102
16.291882626266478
9.84402114484232
12.546448365999668
15.788179283051354
18.687004562215556
21.154890738426808
23.3432025035471
25.219119627440048
26.76247062733539
27.961208853204994
28.80763131037628
29.295154171556593
29.415358307589223
29.154873125398865
28.491633519706554
27.38942729968163
25.788171037388587
23.58372224985797
20.576822244886102
16.291882626266478
9.84402114484232
12.546448365999668
15.788179283051354
18.687004562215556
21.154890738426808
23.3432025035471
25.219119627440048
26.76247062733539
27.961208853204994
28.80763131037628
29.295154171556593
29.415358307589223
29.154873125398865
28.491633519706554
27.38942729968163
25.788171037388587
23.58372224985797
20.576822244886102
16.291882626266478
9.84402114484232
12.546448365999668
15.788179283051354
18.687004562215556
21.154890738426808
23.3432025035471
25.219119627440048
26.76247062733539
27.961208853204994
28.80763131037628
29.295154171556593
29.415358307589223
29.154873125398865
28.491633519706554
27.38942729968163
25.788171037388587
23.58372224985797
20.576822244886102
16.291882626266478
9.84402114484232
12.546448365999668
15.788179283051354
18.687004562215556
21.154890738426808
23.3432025035471
25.219119627440048
26.76247062733539
27.961208853204994
28.80763131037628
29.295154171556593
29.415358307589223
29.154873125398865
28.491633519706554
27.38942729968163
25.788171037388587
23.58372224985797
20.576822244886102
16.291882626266478
9.84402114484232
12.546448365999668
15.788179283051354
18.687004562215556
21.154890738426808
23.3432025035471
25.219119627440048
26.76247062733539
27.961208853204994
28.80763131037628
29.295154171556593
29.415358307589223
29.154873125398865
28.491633519706554
27.38942729968163
25.788171037388587
23.58372224985797
20.576822244886102
16.291882626266478
9.84402114484232
12.546448365999668
15.788179283051354
18.687004562215556
21.154890738426808
23.3432025035471
25.219119627440048
26.76247062733539
27.961208853204994
28.80763131037628
29.295154171556593
29.415358307589223
29.154873125398865
28.491633519706554
27.38942729968163
25.788171037388587
23.58372224985797
20.576822244886102
16.291882626266478
9.84402114484232
12.546448365999668
15.788179283051354
18.687004562215556
21.154890738426808
23.3432025035471
25.219119627440048
26.76247062733539
27.961208853204994
28.80763131037628
29.295154171556593
29.415358307589223
29.154873125398865
28.491633519706554
27.38942729968163
25.788171037388587
23.58372224985797
20.576822244886102
16.291882626266478
9.84402114484232
12.546448365999668
15.788179283051354
18.687004562215556
21.154890738426808
23.3432025035471
25.219119627440048
26.76247062733539
27.961208853204994
28.80763131037628
29.295154171556593
29.415358307589223
29.154873125398865
28.491633519706554
27.38942729968163
25.788171037388587
23.58372224985797
20.576822244886102
16.291882626266478
9.84402114484232
12.546448365999668
15.788179283051354
18.687004562215556
21.154890738426808
23.3432025035471
25.219119627440048
26.76247062733539
27.961208853204994
28.80763131037628
29.295154171556593
29.415358307589223
29.154873125398865
28.491633519706554
27.38942729968163
25.788171037388587
23.58372224985797
20.576822244886102
16.291882626266478
9.84402114484232
12.546448365999668
15.788179283051354
18.687004562215556
21.154890738426808
23.3432025035471
25.219119627440048
26.76247062733539
27.961208853204994
28.80763131037628
29.295154171556593
29.415358307589223
29.154873125398865
28.491633519706554
27.38942729968163
25.788171037388587
23.58372224985797
20.576822244886102
16.291882626266478
9.84402114484232
12.546448365999668
15.788179283051354
18.687004562215556
21.154890738426808
23.3432025035471
25.219119627440048
26.76247062733539
27.961208853204994
28.80763131037628
29.295154171556593
29.415358307589223
29.154873125398865
28.491633519706554
27.38942729968163
25.788171037388587
23.58372224985797
20.576822244886102
16.291882626266478
9.84402114484232
12.546448365999668
15.788179283051354
18.687004562215556
21.154890738426808
23.3432025035471
25.219119627440048
26.76247062733539
27.961208853204994
28.80763131037628
29.295154171556593
29.415358307589223
29.154873125398865
28.491633519706554
27.38942729968163
25.788171037388587
23.58372224985797
20.576822244886102
16.291882626266478
9.84402114484232
12.546448365999668
15.788179283051354
18.687004562215556
21.154890738426808
23.3432025035471
25.219119627440048
26.76247062733539
27.961208853204994
28.80763131037628
29.295154171556593
29.415358307589223
29.154873125398865
28.491633519706554
27.38942729968163
25.788171037388587
23.58372224985797
20.576822244886102
16.291882626266478
9.84402114484232
12.546448365999668
15.788179283051354
18.687004562215556
21.154890738426808
23.3432025035471
25.219119627440048
26.76247062733539
27.961208853204994
28.80763131037628
29.295154171556593
29.415358307589223
29.154873125398865
28.491633519706554
27.38942729968163
25.788171037388587
23.58372224985797
20.576822244886102
16.291882626266478
9.84402114484232
12.546448365999668
15.788179283051354
18.687004562215556
21.154890738426808
23.3432025035471
25.219119627440048
26.76247062733539
27.961208853204994
28.80763131037628
29.295154171556593
29.415358307589223
29.154873125398865
28.491633519706554
27.38942729968163
25.788171037388587
23.58372224985797
20.576822244886102
16.291882626266478
9.84402114484232
12.546448365999668
15.788179283051354
18.687004562215556
21.154890738426808
23.3432025035471
25.219119627440048
26.76247062733539
27.961208853204994
28.80763131037628
29.295154171556593
29.415358307589223
29.154873125398865
28.491633519706554
27.38942729968163
25.788171037388587
23.58372224985797
20.576822244886102
16.291882626266478
9.84402114484232
12.546448365999668
15.788179283051354
18.687004562215556
21.154890738426808
23.3432025035471
25.219119627440048
26.76247062733539
27.961208853204994
28.80763131037628
29.295154171556593
29.415358307589223
29.154873125398865
28.491633519706554
27.38942729968163
25.788171037388587
23.58372224985797
20.576822244886102
16.291882626266478
9.84402114484232
12.546448365999668
15.788179283051354
18.687004562215556
21.154890738426808
23.3432025035471
25.219119627440048
26.76247062733539
27.961208853204994
28.80763131037628
29.295154171556593
29.415358307589223
29.154873125398865
28.491633519706554
27.38942729968163
25.788171037388587
23.58372224985797
20.576822244886102
16.291882626266478
9.84402114484232
12.546448365999668
15.788179283051354
18.687004562215556
21.154890738426808
23.3432025035471
25.219119627440048
26.76247062733539
27.961208853204994
28.80763131037628
29.295154171556593
29.415358307589223
29.154873125398865
28.491633519706554
27.38942729968163
25.788171037388587
23.58372224985797
20.576822244886102
16.291882626266478
9.84402114484232
12.546448365999668
15.788179283051354
18.687004562215556
21.154890738426808
23.3432025035471
25.219119627440048
26.76247062733539
27.961208853204994
28.80763131037628
29.295154171556593
29.415358307589223
29.154873125398865
28.491633519706554
27.38942729968163
25.788171037388587
23.58372224985797
20.576822244886102
16.291882626266478
9.84402114484232
12.546448365999668
15.788179283051354
18.687004562215556
21.154890738426808
23.3432025035471
25.219119627440048
26.76247062733539
27.961208853204994
28.80763131037628
29.295154171556593
29.415358307589223
29.154873125398865
28.491633519706554
27.38942729968163
25.788171037388587
23.58372224985797
20.576822244886102
16.291882626266478
9.84402114484232
12.546448365999668
15.788179283051354
18.687004562215556
21.154890738426808
23.3432025035471
25.219119627440048
26.76247062733539
27.961208853204994
28.80763131037628
29.295154171556593
29.415358307589223
29.154873125398865
28.491633519706554
27.38942729968163
25.788171037388587
23.58372224985797
20.576822244886102
16.291882626266478
9.84402114484232
12.546448365999668
15.788179283051354
18.687004562215556
21.154890738426808
23.3432025035471
25.219119627440048
26.76247062733539
27.961208853204994
28.80763131037628
29.295154171556593
29.415358307589223
29.154873125398865
28.491633519706554
27.38942729968163
25.788171037388587
23.58372224985797
20.576822244886102
16.291882626266478
9.84402114484232
12.546448365999668
15.788179283051354
18.687004562215556
21.154890738426808
23.3432025035471
25.219119627440048
26.76247062733539
27.961208853204994
28.80763131037628
29.295154171556593
29.415358307589223
29.154873125398865
28.491633519706554
27.38942729968163
25.788171037388587
23.58372224985797
20.576822244886102
16.291882626266478
9.84402114484232
12.546448365999668
15.788179283051354
18.687004562215556
21.154890738426808
23.3432025035471
25.219119627440048
26.76247062733539
27.961208853204994
28.80763131037628
29.295154171556593
29.415358307589223
29.154873125398865
28.491633519706554
27.38942729968163
25.788171037388587
23.58372224985797
20.576822244886102
16.291882626266478
9.84402114484232
12.546448365999668
15.788179283051354
18.687004562215556
21.154890738426808
23.3432025035471
25.219119627440048
26.76247062733539
27.961208853204994
28.80763131037628
29.295154171556593
29.415358307589223
29.154873125398865
28.491633519706554
27.38942729968163
25.788171037388587
23.58372224985797
20.576822244886102
16.291882626266478
9.84402114484232
12.546448365999668
15.788179283051354
18.687004562215556
21.154890738426808
23.3432025035471
25.219119627440048
26.76247062733539
27.961208853204994
28.80763131037628
29.295154171556593
29.415358307589223
29.154873125398865
28.491633519706554
27.38942729968163
25.788171037388587
23.58372224985797
20.576822244886102
16.291882626266478
9.84402114484232
12.546448365999668
15.788179283051354
18.687004562215556
21.154890738426808
23.3432025035471
25.219119627440048
26.76247062733539
27.961208853204994
28.80763131037628
29.295154171556593
29.415358307589223
29.154873125398865
28.491633519706554
27.38942729968163
25.788171037388587
23.58372224985797
20.576822244886102
16.291882626266478
9.84402114484232
12.546448365999668
15.788179283051354
18.687004562215556
21.154890738426808
23.3432025035471
25.219119627440048
26.76247062733539
27.961208853204994
28.80763131037628
29.295154171556593
29.415358307589223
29.154873125398865
28.491633519706554
27.38942729968163
25.788171037388587
23.58372224985797
20.576822244886102
16.291882626266478
9.84402114484232
12.546448365999668
15.788179283051354
18.687004562215556
21.154890738426808
23.3432025035471
25.219119627440048
26.76247062733539
27.961208853204994
28.80763131037628
29.295154171556593
29.415358307589223
29.154873125398865
28.491633519706554
27.38942729968163
25.788171037388587
23.58372224985797
20.576822244886102
16.291882626266478
9.84402114484232
12.546448365999668
15.788179283051354
18.687004562215556
21.154890738426808
23.3432025035471
25.219119627440048
26.76247062733539
27.961208853204994
28.80763131037628
29.295154171556593
29.415358307589223
29.154873125398865
28.491633519706554
27.38942729968163
25.788171037388587
23.58372224985797
20.576822244886102
16.291882626266478
9.84402114484232
12.546448365999668
15.788179283051354
18.687004562215556
21.154890738426808
23.3432025035471
25.219119627440048
26.76247062733539
27.961208853204994
28.80763131037628
29.295154171556593
29.415358307589223
29.154873125398865
28.491633519706554
27.38942729968163
25.788171037388587
23.58372224985797
20.576822244886102
16.291882626266478
9.84402114484232
12.546448365999668
15.788179283051354
18.687004562215556
21.154890738426808
23.3432025035471
25.219119627440048
26.76247062733539
27.961208853204994
28.80763131037628
29.295154171556593
29.415358307589223
29.154873125398865
28.491633519706554
27.38942729968163
25.788171037388587
23.58372224985797
20.576822244886102
16.291882626266478
9.84402114484232
12.546448365999668
15.788179283051354
18.687004562215556
21.154890738426808
23.3432025035471
25.219119627440048
26.76247062733539
27.961208853204994
28.80763131037628
29.295154171556593
29.415358307589223
29.154873125398865
28.491633519706554
27.38942729968163
25.788171037388587
23.58372224985797
20.576822244886102
16.291882626266478
9.84402114484232
12.546448365999668
15.788179283051354
18.687004562215556
21.154890738426808
23.3432025035471
25.219119627440048
26.76247062733539
27.961208853204994
28.80763131037628
29.295154171556593
29.415358307589223
29.154873125398865
28.491633519706554
27.38942729968163
25.788171037388587
23.58372224985797
20.576822244886102
16.291882626266478
9.84402114484232
12.546448365999668
15.788179283051354
18.687004562215556
21.154890738426808
23.3432025035471
25.219119627440048
26.76247062733539
27.961208853204994
28.80763131037628
29.295154171556593
29.415358307589223
29.154873125398865
28.491633519706554
27.38942729968163
25.788171037388587
23.58372224985797
20.576822244886102
16.291882626266478
9.84402114484232
12.546448365999668
15.788179283051354
18.687004562215556
21.154890738426808
23.3432025035471
25.219119627440048
26.76247062733539
27.961208853204994
28.80763131037628
29.295154171556593
29.415358307589223
29.154873125398865
28.491633519706554
27.38942729968163
25.788171037388587
23.58372224985797
20.576822244886102
16.291882626266478
9.84402114484232
12.546448365999668
15.788179283051354
18.687004562215556
21.154890738426808
23.3432025035471
25.219119627440048
26.76247062733539
27.961208853204994
28.80763131037628
29.295154171556593
29.415358307589223
29.154873125398865
28.491633519706554
27.38942729968163
25.788171037388587
23.58372224985797
20.576822244886102
16.291882626266478
9.84402114484232
12.546448365999668
15.788179283051354
18.687004562215556
21.154890738426808
23.3432025035471
25.219119627440048
26.76247062733539
27.961208853204994
28.80763131037628
29.295154171556593
29.415358307589223
29.154873125398865
28.491633519706554
27.38942729968163
25.788171037388587
23.58372224985797
20.576822244886102
16.291882626266478
9.84402114484232
12.546448365999668
15.788179283051354
18.687004562215556
21.154890738426808
23.3432025035471
25.219119627440048
26.76247062733539
27.961208853204994