# vtk DataFile Version 4.0
SUAVE Model of PROWIM Wing 
ASCII
DATASET UNSTRUCTURED_GRID

POINTS 561 float
2.032 -0.0 0.784
2.1988 -0.0 0.7753
2.3655 -0.0 0.7665
2.5323 -0.0 0.7578
2.6991 -0.0 0.749
2.8659 -0.0 0.7403
3.0326 -0.0 0.7316
3.1994 -0.0 0.7228
3.3662 -0.0 0.7141
3.5329 -0.0 0.7053
3.5329 -0.0 0.7053
2.032 -0.1728 0.784
2.1971 -0.1728 0.7755
2.3622 -0.1728 0.767
2.5273 -0.1728 0.7584
2.6925 -0.1728 0.7499
2.8576 -0.1728 0.7414
3.0227 -0.1728 0.7329
3.1878 -0.1728 0.7244
3.3529 -0.1728 0.7159
3.518 -0.1728 0.7073
3.518 -0.1728 0.7073
2.032 -0.3453 0.784
2.1955 -0.3453 0.7757
2.3589 -0.3453 0.7674
2.5224 -0.3453 0.7591
2.6858 -0.3453 0.7508
2.8493 -0.3453 0.7425
3.0128 -0.3453 0.7342
3.1762 -0.3453 0.7259
3.3397 -0.3453 0.7176
3.5032 -0.3453 0.7093
3.5032 -0.3453 0.7093
2.032 -0.5176 0.784
2.1938 -0.5176 0.7759
2.3556 -0.5176 0.7678
2.5174 -0.5176 0.7598
2.6792 -0.5176 0.7517
2.8411 -0.5176 0.7436
3.0029 -0.5176 0.7355
3.1647 -0.5176 0.7274
3.3265 -0.5176 0.7194
3.4883 -0.5176 0.7113
3.4883 -0.5176 0.7113
2.032 -0.6893 0.784
2.1922 -0.6893 0.7761
2.3523 -0.6893 0.7683
2.5125 -0.6893 0.7604
2.6727 -0.6893 0.7525
2.8328 -0.6893 0.7447
2.993 -0.6893 0.7368
3.1531 -0.6893 0.7289
3.3133 -0.6893 0.7211
3.4735 -0.6893 0.7132
3.4735 -0.6893 0.7132
2.032 -0.8604 0.784
2.1905 -0.8604 0.7763
2.349 -0.8604 0.7687
2.5076 -0.8604 0.761
2.6661 -0.8604 0.7534
2.8246 -0.8604 0.7457
2.9831 -0.8604 0.7381
3.1417 -0.8604 0.7304
3.3002 -0.8604 0.7227
3.4587 -0.8604 0.7151
3.4587 -0.8604 0.7151
2.032 -1.0306 0.784
2.1889 -1.0306 0.7765
2.3458 -1.0306 0.7691
2.5027 -1.0306 0.7616
2.6596 -1.0306 0.7542
2.8165 -1.0306 0.7467
2.9734 -1.0306 0.7393
3.1302 -1.0306 0.7318
3.2871 -1.0306 0.7244
3.444 -1.0306 0.7169
3.444 -1.0306 0.7169
2.032 -1.1998 0.784
2.1873 -1.1998 0.7768
2.3425 -1.1998 0.7695
2.4978 -1.1998 0.7623
2.6531 -1.1998 0.755
2.8083 -1.1998 0.7478
2.9636 -1.1998 0.7405
3.1189 -1.1998 0.7333
3.2742 -1.1998 0.726
3.4294 -1.1998 0.7188
3.4294 -1.1998 0.7188
2.032 -1.3678 0.784
2.1857 -1.3678 0.7769
2.3393 -1.3678 0.7699
2.493 -1.3678 0.7628
2.6466 -1.3678 0.7558
2.8003 -1.3678 0.7487
2.9539 -1.3678 0.7417
3.1076 -1.3678 0.7346
3.2613 -1.3678 0.7276
3.4149 -1.3678 0.7205
3.4149 -1.3678 0.7205
2.032 -1.5345 0.784
2.1841 -1.5345 0.7771
2.3361 -1.5345 0.7703
2.4882 -1.5345 0.7634
2.6402 -1.5345 0.7566
2.7923 -1.5345 0.7497
2.9444 -1.5345 0.7429
3.0964 -1.5345 0.736
3.2485 -1.5345 0.7292
3.4005 -1.5345 0.7223
3.4005 -1.5345 0.7223
2.032 -1.6996 0.784
2.1825 -1.6996 0.7773
2.3329 -1.6996 0.7707
2.4834 -1.6996 0.764
2.6339 -1.6996 0.7573
2.7844 -1.6996 0.7507
2.9348 -1.6996 0.744
3.0853 -1.6996 0.7373
3.2358 -1.6996 0.7307
3.3863 -1.6996 0.724
3.3863 -1.6996 0.724
2.032 -1.8631 0.784
2.1809 -1.8631 0.7775
2.3298 -1.8631 0.771
2.4787 -1.8631 0.7646
2.6276 -1.8631 0.7581
2.7765 -1.8631 0.7516
2.9254 -1.8631 0.7451
3.0743 -1.8631 0.7386
3.2232 -1.8631 0.7322
3.3722 -1.8631 0.7257
3.3722 -1.8631 0.7257
2.032 -2.0247 0.784
2.1794 -2.0247 0.7777
2.3267 -2.0247 0.7714
2.4741 -2.0247 0.7651
2.6214 -2.0247 0.7588
2.7688 -2.0247 0.7525
2.9161 -2.0247 0.7462
3.0635 -2.0247 0.7399
3.2108 -2.0247 0.7336
3.3582 -2.0247 0.7273
3.3582 -2.0247 0.7273
2.032 -2.1843 0.784
2.1778 -2.1843 0.7779
2.3236 -2.1843 0.7718
2.4695 -2.1843 0.7656
2.6153 -2.1843 0.7595
2.7611 -2.1843 0.7534
2.9069 -2.1843 0.7473
3.0528 -2.1843 0.7411
3.1986 -2.1843 0.735
3.3444 -2.1843 0.7289
3.3444 -2.1843 0.7289
2.032 -2.3418 0.784
2.1763 -2.3418 0.778
2.3206 -2.3418 0.7721
2.4649 -2.3418 0.7661
2.6092 -2.3418 0.7602
2.7536 -2.3418 0.7542
2.8979 -2.3418 0.7483
3.0422 -2.3418 0.7423
3.1865 -2.3418 0.7364
3.3308 -2.3418 0.7304
3.3308 -2.3418 0.7304
2.032 -2.4969 0.784
2.1748 -2.4969 0.7782
2.3176 -2.4969 0.7724
2.4605 -2.4969 0.7666
2.6033 -2.4969 0.7609
2.7461 -2.4969 0.7551
2.8889 -2.4969 0.7493
3.0318 -2.4969 0.7435
3.1746 -2.4969 0.7377
3.3174 -2.4969 0.7319
3.3174 -2.4969 0.7319
2.032 -2.6496 0.784
2.1734 -2.6496 0.7784
2.3147 -2.6496 0.7728
2.4561 -2.6496 0.7671
2.5974 -2.6496 0.7615
2.7388 -2.6496 0.7559
2.8801 -2.6496 0.7503
3.0215 -2.6496 0.7446
3.1628 -2.6496 0.739
3.3042 -2.6496 0.7334
3.3042 -2.6496 0.7334
2.032 -2.7997 0.784
2.1719 -2.7997 0.7785
2.3118 -2.7997 0.7731
2.4517 -2.7997 0.7676
2.5917 -2.7997 0.7621
2.7316 -2.7997 0.7567
2.8715 -2.7997 0.7512
3.0114 -2.7997 0.7458
3.1513 -2.7997 0.7403
3.2912 -2.7997 0.7348
3.2912 -2.7997 0.7348
2.032 -2.947 0.784
2.1705 -2.947 0.7787
2.309 -2.947 0.7734
2.4475 -2.947 0.7681
2.586 -2.947 0.7628
2.7245 -2.947 0.7574
2.863 -2.947 0.7521
3.0015 -2.947 0.7468
3.14 -2.947 0.7415
3.2785 -2.947 0.7362
3.2785 -2.947 0.7362
2.032 -3.0915 0.784
2.1691 -3.0915 0.7788
2.3062 -3.0915 0.7737
2.4433 -3.0915 0.7685
2.5804 -3.0915 0.7633
2.7176 -3.0915 0.7582
2.8547 -3.0915 0.753
2.9918 -3.0915 0.7479
3.1289 -3.0915 0.7427
3.266 -3.0915 0.7375
3.266 -3.0915 0.7375
2.032 -3.2328 0.784
2.1678 -3.2328 0.779
2.3035 -3.2328 0.774
2.4393 -3.2328 0.7689
2.575 -3.2328 0.7639
2.7108 -3.2328 0.7589
2.8465 -3.2328 0.7539
2.9823 -3.2328 0.7489
3.118 -3.2328 0.7438
3.2538 -3.2328 0.7388
3.2538 -3.2328 0.7388
2.032 -3.371 0.784
2.1664 -3.371 0.7791
2.3009 -3.371 0.7742
2.4353 -3.371 0.7693
2.5697 -3.371 0.7645
2.7041 -3.371 0.7596
2.8386 -3.371 0.7547
2.973 -3.371 0.7498
3.1074 -3.371 0.7449
3.2418 -3.371 0.74
3.2418 -3.371 0.74
2.032 -3.5058 0.784
2.1651 -3.5058 0.7792
2.2983 -3.5058 0.7745
2.4314 -3.5058 0.7697
2.5645 -3.5058 0.765
2.6977 -3.5058 0.7602
2.8308 -3.5058 0.7555
2.9639 -3.5058 0.7507
3.0971 -3.5058 0.746
3.2302 -3.5058 0.7412
3.2302 -3.5058 0.7412
2.032 -3.6372 0.784
2.1639 -3.6372 0.7794
2.2957 -3.6372 0.7748
2.4276 -3.6372 0.7701
2.5595 -3.6372 0.7655
2.6913 -3.6372 0.7609
2.8232 -3.6372 0.7563
2.9551 -3.6372 0.7516
3.087 -3.6372 0.747
3.2188 -3.6372 0.7424
3.2188 -3.6372 0.7424
2.032 -3.765 0.784
2.1626 -3.765 0.7795
2.2933 -3.765 0.775
2.4239 -3.765 0.7705
2.5546 -3.765 0.766
2.6852 -3.765 0.7615
2.8158 -3.765 0.757
2.9465 -3.765 0.7525
3.0771 -3.765 0.748
3.2078 -3.765 0.7435
3.2078 -3.765 0.7435
2.032 -3.8891 0.784
2.1614 -3.8891 0.7796
2.2909 -3.8891 0.7752
2.4203 -3.8891 0.7709
2.5498 -3.8891 0.7665
2.6792 -3.8891 0.7621
2.8087 -3.8891 0.7577
2.9381 -3.8891 0.7533
3.0676 -3.8891 0.7489
3.197 -3.8891 0.7446
3.197 -3.8891 0.7446
2.032 -4.0093 0.784
2.1603 -4.0093 0.7797
2.2886 -4.0093 0.7755
2.4169 -4.0093 0.7712
2.5452 -4.0093 0.7669
2.6735 -4.0093 0.7626
2.8018 -4.0093 0.7584
2.9301 -4.0093 0.7541
3.0583 -4.0093 0.7498
3.1866 -4.0093 0.7456
3.1866 -4.0093 0.7456
2.032 -4.1256 0.784
2.1592 -4.1256 0.7798
2.2864 -4.1256 0.7757
2.4135 -4.1256 0.7715
2.5407 -4.1256 0.7673
2.6679 -4.1256 0.7632
2.7951 -4.1256 0.759
2.9222 -4.1256 0.7549
3.0494 -4.1256 0.7507
3.1766 -4.1256 0.7465
3.1766 -4.1256 0.7465
2.032 -4.2378 0.784
2.1581 -4.2378 0.7799
2.2842 -4.2378 0.7759
2.4103 -4.2378 0.7718
2.5364 -4.2378 0.7678
2.6625 -4.2378 0.7637
2.7886 -4.2378 0.7596
2.9147 -4.2378 0.7556
3.0408 -4.2378 0.7515
3.1669 -4.2378 0.7475
3.1669 -4.2378 0.7475
2.032 -4.3459 0.784
2.1571 -4.3459 0.78
2.2821 -4.3459 0.7761
2.4072 -4.3459 0.7721
2.5322 -4.3459 0.7682
2.6573 -4.3459 0.7642
2.7824 -4.3459 0.7602
2.9074 -4.3459 0.7563
3.0325 -4.3459 0.7523
3.1575 -4.3459 0.7483
3.1575 -4.3459 0.7483
2.032 -4.4496 0.784
2.1561 -4.4496 0.7801
2.2801 -4.4496 0.7763
2.4042 -4.4496 0.7724
2.5282 -4.4496 0.7685
2.6523 -4.4496 0.7647
2.7764 -4.4496 0.7608
2.9004 -4.4496 0.7569
3.0245 -4.4496 0.753
3.1486 -4.4496 0.7492
3.1486 -4.4496 0.7492
2.032 -4.5489 0.784
2.1551 -4.5489 0.7802
2.2782 -4.5489 0.7764
2.4013 -4.5489 0.7727
2.5244 -4.5489 0.7689
2.6475 -4.5489 0.7651
2.7706 -4.5489 0.7613
2.8937 -4.5489 0.7575
3.0169 -4.5489 0.7537
3.14 -4.5489 0.75
3.14 -4.5489 0.75
2.032 -4.6438 0.784
2.1542 -4.6438 0.7803
2.2764 -4.6438 0.7766
2.3986 -4.6438 0.7729
2.5208 -4.6438 0.7692
2.643 -4.6438 0.7655
2.7652 -4.6438 0.7618
2.8874 -4.6438 0.7581
3.0096 -4.6438 0.7544
3.1318 -4.6438 0.7507
3.1318 -4.6438 0.7507
2.032 -4.7341 0.784
2.1533 -4.7341 0.7804
2.2747 -4.7341 0.7768
2.396 -4.7341 0.7731
2.5173 -4.7341 0.7695
2.6386 -4.7341 0.7659
2.76 -4.7341 0.7623
2.8813 -4.7341 0.7587
3.0026 -4.7341 0.755
3.1239 -4.7341 0.7514
3.1239 -4.7341 0.7514
2.032 -4.8197 0.784
2.1525 -4.8197 0.7805
2.273 -4.8197 0.7769
2.3935 -4.8197 0.7734
2.514 -4.8197 0.7698
2.6345 -4.8197 0.7663
2.755 -4.8197 0.7627
2.8755 -4.8197 0.7592
2.996 -4.8197 0.7556
3.1165 -4.8197 0.7521
3.1165 -4.8197 0.7521
2.032 -4.9005 0.784
2.1517 -4.9005 0.7805
2.2715 -4.9005 0.777
2.3912 -4.9005 0.7736
2.5109 -4.9005 0.7701
2.6306 -4.9005 0.7666
2.7504 -4.9005 0.7631
2.8701 -4.9005 0.7597
2.9898 -4.9005 0.7562
3.1095 -4.9005 0.7527
3.1095 -4.9005 0.7527
2.032 -4.9765 0.784
2.151 -4.9765 0.7806
2.27 -4.9765 0.7772
2.389 -4.9765 0.7738
2.508 -4.9765 0.7703
2.627 -4.9765 0.7669
2.746 -4.9765 0.7635
2.865 -4.9765 0.7601
2.984 -4.9765 0.7567
3.103 -4.9765 0.7533
3.103 -4.9765 0.7533
2.032 -5.0477 0.784
2.1503 -5.0477 0.7806
2.2686 -5.0477 0.7773
2.3869 -5.0477 0.7739
2.5052 -5.0477 0.7706
2.6236 -5.0477 0.7672
2.7419 -5.0477 0.7639
2.8602 -5.0477 0.7605
2.9785 -5.0477 0.7572
3.0968 -5.0477 0.7538
3.0968 -5.0477 0.7538
2.032 -5.1138 0.784
2.1497 -5.1138 0.7807
2.2674 -5.1138 0.7774
2.385 -5.1138 0.7741
2.5027 -5.1138 0.7708
2.6204 -5.1138 0.7675
2.7381 -5.1138 0.7642
2.8557 -5.1138 0.7609
2.9734 -5.1138 0.7576
3.0911 -5.1138 0.7543
3.0911 -5.1138 0.7543
2.032 -5.1748 0.784
2.1491 -5.1748 0.7808
2.2662 -5.1748 0.7775
2.3833 -5.1748 0.7743
2.5004 -5.1748 0.771
2.6174 -5.1748 0.7678
2.7345 -5.1748 0.7645
2.8516 -5.1748 0.7613
2.9687 -5.1748 0.758
3.0858 -5.1748 0.7548
3.0858 -5.1748 0.7548
2.032 -5.2308 0.784
2.1486 -5.2308 0.7808
2.2651 -5.2308 0.7776
2.3817 -5.2308 0.7744
2.4982 -5.2308 0.7712
2.6148 -5.2308 0.768
2.7313 -5.2308 0.7648
2.8479 -5.2308 0.7616
2.9644 -5.2308 0.7584
3.081 -5.2308 0.7552
3.081 -5.2308 0.7552
2.032 -5.2816 0.784
2.1481 -5.2816 0.7808
2.2641 -5.2816 0.7777
2.3802 -5.2816 0.7745
2.4962 -5.2816 0.7714
2.6123 -5.2816 0.7682
2.7284 -5.2816 0.765
2.8444 -5.2816 0.7619
2.9605 -5.2816 0.7587
[...]
CELL_DATA 500
SCALARS cl float 1
LOOKUP_TABLE default
0.4601110240284061
0.4601110240284061
0.4601110240284061
0.4601110240284061
0.4601110240284061
0.4601110240284061
0.4601110240284061
0.4601110240284061
0.4601110240284061
0.4601110240284061
0.46177096520030103
0.46177096520030103
0.46177096520030103
0.46177096520030103
0.46177096520030103
0.46177096520030103
0.46177096520030103
0.46177096520030103
0.46177096520030103
0.46177096520030103
0.4617478174858207
0.4617478174858207
0.4617478174858207
0.4617478174858207
0.4617478174858207
0.4617478174858207
0.4617478174858207
0.4617478174858207
0.4617478174858207
0.4617478174858207
0.45975622742987493
0.45975622742987493
0.45975622742987493
0.45975622742987493
0.45975622742987493
0.45975622742987493
0.45975622742987493
0.45975622742987493
0.45975622742987493
0.45975622742987493
0.45531620902024444
0.45531620902024444
0.45531620902024444
0.45531620902024444
0.45531620902024444
0.45531620902024444
0.45531620902024444
0.45531620902024444
0.45531620902024444
0.45531620902024444
0.44775177767003255
0.44775177767003255
0.44775177767003255
0.44775177767003255
0.44775177767003255
0.44775177767003255
0.44775177767003255
0.44775177767003255
0.44775177767003255
0.44775177767003255
0.4361251758708866
0.4361251758708866
0.4361251758708866
0.4361251758708866
0.4361251758708866
0.4361251758708866
0.4361251758708866
0.4361251758708866
0.4361251758708866
0.4361251758708866
0.4192843787125563
0.4192843787125563
0.4192843787125563
0.4192843787125563
0.4192843787125563
0.4192843787125563
0.4192843787125563
0.4192843787125563
0.4192843787125563
0.4192843787125563
0.39660113134667796
0.39660113134667796
0.39660113134667796
0.39660113134667796
0.39660113134667796
0.39660113134667796
0.39660113134667796
0.39660113134667796
0.39660113134667796
0.39660113134667796
0.3553085522947854
0.3553085522947854
0.3553085522947854
0.3553085522947854
0.3553085522947854
0.3553085522947854
0.3553085522947854
0.3553085522947854
0.3553085522947854
0.3553085522947854
0.3205301985711436
0.3205301985711436
0.3205301985711436
0.3205301985711436
0.3205301985711436
0.3205301985711436
0.3205301985711436
0.3205301985711436
0.3205301985711436
0.3205301985711436
0.29417886026245793
0.29417886026245793
0.29417886026245793
0.29417886026245793
0.29417886026245793
0.29417886026245793
0.29417886026245793
0.29417886026245793
0.29417886026245793
0.29417886026245793
0.2843650925290616
0.2843650925290616
0.2843650925290616
0.2843650925290616
0.2843650925290616
0.2843650925290616
0.2843650925290616
0.2843650925290616
0.2843650925290616
0.2843650925290616
0.3105210136207687
0.3105210136207687
0.3105210136207687
0.3105210136207687
0.3105210136207687
0.3105210136207687
0.3105210136207687
0.3105210136207687
0.3105210136207687
0.3105210136207687
0.39260040301470156
0.39260040301470156
0.39260040301470156
0.39260040301470156
0.39260040301470156
0.39260040301470156
0.39260040301470156
0.39260040301470156
0.39260040301470156
0.39260040301470156
0.5154515520014665
0.5154515520014665
0.5154515520014665
0.5154515520014665
0.5154515520014665
0.5154515520014665
0.5154515520014665
0.5154515520014665
0.5154515520014665
0.5154515520014665
0.6113758208600814
0.6113758208600814
0.6113758208600814
0.6113758208600814
0.6113758208600814
0.6113758208600814
0.6113758208600814
0.6113758208600814
0.6113758208600814
0.6113758208600814
0.6439042923347285
0.6439042923347285
0.6439042923347285
0.6439042923347285
0.6439042923347285
0.6439042923347285
0.6439042923347285
0.6439042923347285
0.6439042923347285
0.6439042923347285
0.6415515451837603
0.6415515451837603
0.6415515451837603
0.6415515451837603
0.6415515451837603
0.6415515451837603
0.6415515451837603
0.6415515451837603
0.6415515451837603
0.6415515451837603
0.62176919952828
0.62176919952828
0.62176919952828
0.62176919952828
0.62176919952828
0.62176919952828
0.62176919952828
0.62176919952828
0.62176919952828
0.62176919952828
0.5926500808827383
0.5926500808827383
0.5926500808827383
0.5926500808827383
0.5926500808827383
0.5926500808827383
0.5926500808827383
0.5926500808827383
0.5926500808827383
0.5926500808827383
0.5589589320418449
0.5589589320418449
0.5589589320418449
0.5589589320418449
0.5589589320418449
0.5589589320418449
0.5589589320418449
0.5589589320418449
0.5589589320418449
0.5589589320418449
0.5259490845359279
0.5259490845359279
0.5259490845359279
0.5259490845359279
0.5259490845359279
0.5259490845359279
0.5259490845359279
0.5259490845359279
0.5259490845359279
0.5259490845359279
0.5022972961820867
0.5022972961820867
0.5022972961820867
0.5022972961820867
0.5022972961820867
0.5022972961820867
0.5022972961820867
0.5022972961820867
0.5022972961820867
0.5022972961820867
0.48227071255252524
0.48227071255252524
0.48227071255252524
0.48227071255252524
0.48227071255252524
0.48227071255252524
0.48227071255252524
0.48227071255252524
0.48227071255252524
0.48227071255252524
0.46512123547082923
0.46512123547082923
0.46512123547082923
0.46512123547082923
0.46512123547082923
0.46512123547082923
0.46512123547082923
0.46512123547082923
0.46512123547082923
0.46512123547082923
0.4498904166124568
0.4498904166124568
0.4498904166124568
0.4498904166124568
0.4498904166124568
0.4498904166124568
0.4498904166124568
0.4498904166124568
0.4498904166124568
0.4498904166124568
0.43580250688344396
0.43580250688344396
0.43580250688344396
0.43580250688344396
0.43580250688344396
0.43580250688344396
0.43580250688344396
0.43580250688344396
0.43580250688344396
0.43580250688344396
0.42231246739394135
0.42231246739394135
0.42231246739394135
0.42231246739394135
0.42231246739394135
0.42231246739394135
0.42231246739394135
0.42231246739394135
0.42231246739394135
0.42231246739394135
0.4090504201071552
0.4090504201071552
0.4090504201071552
0.4090504201071552
0.4090504201071552
0.4090504201071552
0.4090504201071552
0.4090504201071552
0.4090504201071552
0.4090504201071552
0.39576195776539
0.39576195776539
0.39576195776539
0.39576195776539
0.39576195776539
0.39576195776539
0.39576195776539
0.39576195776539
0.39576195776539
0.39576195776539
0.38226509131220243
0.38226509131220243
0.38226509131220243
0.38226509131220243
0.38226509131220243
0.38226509131220243
0.38226509131220243
0.38226509131220243
0.38226509131220243
0.38226509131220243
0.36842412065929436
0.36842412065929436
0.36842412065929436
0.36842412065929436
0.36842412065929436
0.36842412065929436
0.36842412065929436
0.36842412065929436
0.36842412065929436
0.36842412065929436
0.3541379209927507
0.3541379209927507
0.3541379209927507
0.3541379209927507
0.3541379209927507
0.3541379209927507
0.3541379209927507
0.3541379209927507
0.3541379209927507
0.3541379209927507
0.3393291908464248
0.3393291908464248
0.3393291908464248
0.3393291908464248
0.3393291908464248
0.3393291908464248
0.3393291908464248
0.3393291908464248
0.3393291908464248
0.3393291908464248
0.32394279041385143
0.32394279041385143
0.32394279041385143
0.32394279041385143
0.32394279041385143
0.32394279041385143
0.32394279041385143
0.32394279041385143
0.32394279041385143
0.32394279041385143
0.30794187891288977
0.30794187891288977
0.30794187891288977
0.30794187891288977
0.30794187891288977
0.30794187891288977
0.30794187891288977
0.30794187891288977
0.30794187891288977
0.30794187891288977
0.29130671283658754
0.29130671283658754
0.29130671283658754
0.29130671283658754
0.29130671283658754
0.29130671283658754
0.29130671283658754
0.29130671283658754
0.29130671283658754
0.29130671283658754
0.27403480678889386
0.27403480678889386
0.27403480678889386
0.27403480678889386
0.27403480678889386
0.27403480678889386
0.27403480678889386
0.27403480678889386
0.27403480678889386
0.27403480678889386
0.2561428228564941
0.2561428228564941
0.2561428228564941
0.2561428228564941
0.2561428228564941
0.2561428228564941
0.2561428228564941
0.2561428228564941
0.2561428228564941
0.2561428228564941
0.23766959737030882
0.23766959737030882
0.23766959737030882
0.23766959737030882
0.23766959737030882
0.23766959737030882
0.23766959737030882
0.23766959737030882
0.23766959737030882
0.23766959737030882
0.2186767203297186
0.2186767203297186
0.2186767203297186
0.2186767203297186
0.2186767203297186
0.2186767203297186
0.2186767203297186
0.2186767203297186
0.2186767203297186
0.2186767203297186
0.1992525425356608
0.1992525425356608
0.1992525425356608
0.1992525425356608
0.1992525425356608
0.1992525425356608
0.1992525425356608
0.1992525425356608
0.1992525425356608
0.1992525425356608
0.17952600807707245
0.17952600807707245
0.17952600807707245
0.17952600807707245
0.17952600807707245
0.17952600807707245
0.17952600807707245
0.17952600807707245
0.17952600807707245
0.17952600807707245
0.15967787633492259
0.15967787633492259
0.15967787633492259
0.15967787633492259
0.15967787633492259
0.15967787633492259
0.15967787633492259
0.15967787633492259
0.15967787633492259
0.15967787633492259
0.13996543922873153
0.13996543922873153
0.13996543922873153
0.13996543922873153
0.13996543922873153
0.13996543922873153
0.13996543922873153
0.13996543922873153
0.13996543922873153
0.13996543922873153
0.12078187282259566
0.12078187282259566
0.12078187282259566
0.12078187282259566
0.12078187282259566
0.12078187282259566
0.12078187282259566
0.12078187282259566
0.12078187282259566
0.12078187282259566
0.1027670638930111
0.1027670638930111
0.1027670638930111
0.1027670638930111
0.1027670638930111
0.1027670638930111
0.1027670638930111
0.1027670638930111
0.1027670638930111
0.1027670638930111
0.08709385682835188
0.08709385682835188
0.08709385682835188
0.08709385682835188
0.08709385682835188
0.08709385682835188
0.08709385682835188
0.08709385682835188
0.08709385682835188
0.08709385682835188
0.08039608297421565
0.08039608297421565
0.08039608297421565
0.08039608297421565
0.08039608297421565
0.08039608297421565
0.08039608297421565
0.08039608297421565
0.08039608297421565
0.08039608297421565
SCALARS Cl/CL float 1
LOOKUP_TABLE default
1.0693492892871455
1.0693492892871455
1.0693492892871455
1.0693492892871455
1.0693492892871455
1.0693492892871455
1.0693492892871455
1.0693492892871455
1.0693492892871455
1.0693492892871455
1.073207177535254
1.073207177535254
1.073207177535254
1.073207177535254
1.073207177535254
1.073207177535254
1.073207177535254
1.073207177535254
1.073207177535254
1.073207177535254
1.0731533796674884
1.0731533796674884
1.0731533796674884
1.0731533796674884
1.0731533796674884
1.0731533796674884
1.0731533796674884
1.0731533796674884
1.0731533796674884
1.0731533796674884
1.0685247024577342
1.0685247024577342
1.0685247024577342
1.0685247024577342
1.0685247024577342
1.0685247024577342
1.0685247024577342
1.0685247024577342
1.0685247024577342
1.0685247024577342
1.05820560492951
1.05820560492951
1.05820560492951
1.05820560492951
1.05820560492951
1.05820560492951
1.05820560492951
1.05820560492951
1.05820560492951
1.05820560492951
1.0406250235789727
1.0406250235789727
1.0406250235789727
1.0406250235789727
1.0406250235789727
1.0406250235789727
1.0406250235789727
1.0406250235789727
1.0406250235789727
1.0406250235789727
1.0136035054638715
1.0136035054638715
1.0136035054638715
1.0136035054638715
1.0136035054638715
1.0136035054638715
1.0136035054638715
1.0136035054638715
1.0136035054638715
1.0136035054638715
0.9744636163244673
0.9744636163244673
0.9744636163244673
0.9744636163244673
0.9744636163244673
0.9744636163244673
0.9744636163244673
0.9744636163244673
0.9744636163244673
0.9744636163244673
0.9217452218877171
0.9217452218877171
0.9217452218877171
0.9217452218877171
0.9217452218877171
0.9217452218877171
0.9217452218877171
0.9217452218877171
0.9217452218877171
0.9217452218877171
0.8257766670042148
0.8257766670042148
0.8257766670042148
0.8257766670042148
0.8257766670042148
0.8257766670042148
0.8257766670042148
0.8257766670042148
0.8257766670042148
0.8257766670042148
0.7449478976534128
0.7449478976534128
0.7449478976534128
0.7449478976534128
0.7449478976534128
0.7449478976534128
0.7449478976534128
0.7449478976534128
0.7449478976534128
0.7449478976534128
0.6837044511359948
0.6837044511359948
0.6837044511359948
0.6837044511359948
0.6837044511359948
0.6837044511359948
0.6837044511359948
0.6837044511359948
0.6837044511359948
0.6837044511359948
0.6608961613909341
0.6608961613909341
0.6608961613909341
0.6608961613909341
0.6608961613909341
0.6608961613909341
0.6608961613909341
0.6608961613909341
0.6608961613909341
0.6608961613909341
0.721685436521062
0.721685436521062
0.721685436521062
0.721685436521062
0.721685436521062
0.721685436521062
0.721685436521062
0.721685436521062
0.721685436521062
0.721685436521062
0.9124470834493611
0.9124470834493611
0.9124470834493611
0.9124470834493611
0.9124470834493611
0.9124470834493611
0.9124470834493611
0.9124470834493611
0.9124470834493611
0.9124470834493611
1.1979668428042158
1.1979668428042158
1.1979668428042158
1.1979668428042158
1.1979668428042158
1.1979668428042158
1.1979668428042158
1.1979668428042158
1.1979668428042158
1.1979668428042158
1.4209055323215007
1.4209055323215007
1.4209055323215007
1.4209055323215007
1.4209055323215007
1.4209055323215007
1.4209055323215007
1.4209055323215007
1.4209055323215007
1.4209055323215007
1.4965053246248115
1.4965053246248115
1.4965053246248115
1.4965053246248115
1.4965053246248115
1.4965053246248115
1.4965053246248115
1.4965053246248115
1.4965053246248115
1.4965053246248115
1.4910372780830603
1.4910372780830603
1.4910372780830603
1.4910372780830603
1.4910372780830603
1.4910372780830603
1.4910372780830603
1.4910372780830603
1.4910372780830603
1.4910372780830603
1.4450609024641738
1.4450609024641738
1.4450609024641738
1.4450609024641738
1.4450609024641738
1.4450609024641738
1.4450609024641738
1.4450609024641738
1.4450609024641738
1.4450609024641738
1.377384826034508
1.377384826034508
1.377384826034508
1.377384826034508
1.377384826034508
1.377384826034508
1.377384826034508
1.377384826034508
1.377384826034508
1.377384826034508
1.2990828419767375
1.2990828419767375
1.2990828419767375
1.2990828419767375
1.2990828419767375
1.2990828419767375
1.2990828419767375
1.2990828419767375
1.2990828419767375
1.2990828419767375
1.2223642781377844
1.2223642781377844
1.2223642781377844
1.2223642781377844
1.2223642781377844
1.2223642781377844
1.2223642781377844
1.2223642781377844
1.2223642781377844
1.2223642781377844
1.1673948865220152
1.1673948865220152
1.1673948865220152
1.1673948865220152
1.1673948865220152
1.1673948865220152
1.1673948865220152
1.1673948865220152
1.1673948865220152
1.1673948865220152
1.120850874636312
1.120850874636312
1.120850874636312
1.120850874636312
1.120850874636312
1.120850874636312
1.120850874636312
1.120850874636312
1.120850874636312
1.120850874636312
1.0809935789592895
1.0809935789592895
1.0809935789592895
1.0809935789592895
1.0809935789592895
1.0809935789592895
1.0809935789592895
1.0809935789592895
1.0809935789592895
1.0809935789592895
1.045595458786328
1.045595458786328
1.045595458786328
1.045595458786328
1.045595458786328
1.045595458786328
1.045595458786328
1.045595458786328
1.045595458786328
1.045595458786328
1.0128535867825588
1.0128535867825588
1.0128535867825588
1.0128535867825588
1.0128535867825588
1.0128535867825588
1.0128535867825588
1.0128535867825588
1.0128535867825588
1.0128535867825588
0.9815012318351481
0.9815012318351481
0.9815012318351481
0.9815012318351481
0.9815012318351481
0.9815012318351481
0.9815012318351481
0.9815012318351481
0.9815012318351481
0.9815012318351481
0.9506787561716619
0.9506787561716619
0.9506787561716619
0.9506787561716619
0.9506787561716619
0.9506787561716619
0.9506787561716619
0.9506787561716619
0.9506787561716619
0.9506787561716619
0.9197948889770164
0.9197948889770164
0.9197948889770164
0.9197948889770164
0.9197948889770164
0.9197948889770164
0.9197948889770164
0.9197948889770164
0.9197948889770164
0.9197948889770164
0.8884266674052842
0.8884266674052842
0.8884266674052842
0.8884266674052842
0.8884266674052842
0.8884266674052842
0.8884266674052842
0.8884266674052842
0.8884266674052842
0.8884266674052842
0.8562587093304137
0.8562587093304137
0.8562587093304137
0.8562587093304137
0.8562587093304137
0.8562587093304137
0.8562587093304137
0.8562587093304137
0.8562587093304137
0.8562587093304137
0.823055989416688
0.823055989416688
0.823055989416688
0.823055989416688
0.823055989416688
0.823055989416688
0.823055989416688
0.823055989416688
0.823055989416688
0.823055989416688
0.7886388504432017
0.7886388504432017
0.7886388504432017
0.7886388504432017
0.7886388504432017
0.7886388504432017
0.7886388504432017
0.7886388504432017
0.7886388504432017
0.7886388504432017
0.7528791413555882
0.7528791413555882
0.7528791413555882
0.7528791413555882
0.7528791413555882
0.7528791413555882
0.7528791413555882
0.7528791413555882
0.7528791413555882
0.7528791413555882
0.7156912400710419
0.7156912400710419
0.7156912400710419
0.7156912400710419
0.7156912400710419
0.7156912400710419
0.7156912400710419
0.7156912400710419
0.7156912400710419
0.7156912400710419
0.677029260479418
0.677029260479418
0.677029260479418
0.677029260479418
0.677029260479418
0.677029260479418
0.677029260479418
0.677029260479418
0.677029260479418
0.677029260479418
0.6368874262433504
0.6368874262433504
0.6368874262433504
0.6368874262433504
0.6368874262433504
0.6368874262433504
0.6368874262433504
0.6368874262433504
0.6368874262433504
0.6368874262433504
0.5953044619089259
0.5953044619089259
0.5953044619089259
0.5953044619089259
0.5953044619089259
0.5953044619089259
0.5953044619089259
0.5953044619089259
0.5953044619089259
0.5953044619089259
0.5523706274366751
0.5523706274366751
0.5523706274366751
0.5523706274366751
0.5523706274366751
0.5523706274366751
0.5523706274366751
0.5523706274366751
0.5523706274366751
0.5523706274366751
0.5082290648480348
0.5082290648480348
0.5082290648480348
0.5082290648480348
0.5082290648480348
0.5082290648480348
0.5082290648480348
0.5082290648480348
0.5082290648480348
0.5082290648480348
0.46308511124917356
0.46308511124917356
0.46308511124917356
0.46308511124917356
0.46308511124917356
0.46308511124917356
0.46308511124917356
0.46308511124917356
0.46308511124917356
0.46308511124917356
0.41723844707081753
0.41723844707081753
0.41723844707081753
0.41723844707081753
0.41723844707081753
0.41723844707081753
0.41723844707081753
0.41723844707081753
0.41723844707081753
0.41723844707081753
0.3711091772560712
0.3711091772560712
0.3711091772560712
0.3711091772560712
0.3711091772560712
0.3711091772560712
0.3711091772560712
0.3711091772560712
0.3711091772560712
0.3711091772560712
0.32529527689553217
0.32529527689553217
0.32529527689553217
0.32529527689553217
0.32529527689553217
0.32529527689553217
0.32529527689553217
0.32529527689553217
0.32529527689553217
0.32529527689553217
0.28071053097314874
0.28071053097314874
0.28071053097314874
0.28071053097314874
0.28071053097314874
0.28071053097314874
0.28071053097314874
0.28071053097314874
0.28071053097314874
0.28071053097314874
0.23884210765907127
0.23884210765907127
0.23884210765907127
0.23884210765907127
0.23884210765907127
0.23884210765907127
0.23884210765907127
0.23884210765907127
0.23884210765907127
0.23884210765907127
0.20241582800007993
0.20241582800007993
0.20241582800007993
0.20241582800007993
0.20241582800007993
0.20241582800007993
0.20241582800007993
0.20241582800007993
0.20241582800007993
0.20241582800007993
0.18684945524069907
0.18684945524069907
0.18684945524069907
0.18684945524069907
0.18684945524069907
0.18684945524069907
0.18684945524069907
0.18684945524069907
0.18684945524069907
0.18684945524069907
SCALARS cd float 1
LOOKUP_TABLE default
0.021917403684732027
0.021917403684732027
0.021917403684732027
0.021917403684732027
0.021917403684732027
0.021917403684732027
0.021917403684732027
0.021917403684732027
0.021917403684732027
0.021917403684732027
0.021442896949364517
0.021442896949364517
0.021442896949364517
0.021442896949364517
0.021442896949364517
0.021442896949364517
0.021442896949364517
0.021442896949364517
0.021442896949364517
0.021442896949364517
0.02082476824224944
0.02082476824224944
0.02082476824224944
0.02082476824224944
0.02082476824224944
0.02082476824224944
0.02082476824224944
0.02082476824224944
0.02082476824224944
0.02082476824224944
0.02011633676879937
0.02011633676879937
0.02011633676879937