# vtk DataFile Version 4.0
SUAVE Model of PROWIM Wing 
ASCII
DATASET UNSTRUCTURED_GRID

POINTS 561 float
6.248 0.0 0.0
6.3877 0.0 0.0
6.5274 0.0 0.0
6.6671 0.0 0.0
6.8068 0.0 0.0
6.9465 0.0 0.0
7.0862 0.0 0.0
7.2259 0.0 0.0
7.3656 0.0 0.0
7.5053 0.0 0.0
7.5053 0.0 0.0
6.265 0.0542 0.0
6.4027 0.0542 0.0
6.5404 0.0542 0.0
6.6781 0.0542 0.0
6.8158 0.0542 0.0
6.9535 0.0542 0.0
7.0912 0.0542 0.0
7.229 0.0542 0.0
7.3667 0.0542 0.0
7.5044 0.0542 0.0
7.5044 0.0542 0.0
6.282 0.1084 0.0
6.4177 0.1084 0.0
6.5534 0.1084 0.0
6.6891 0.1084 0.0
6.8249 0.1084 0.0
6.9606 0.1084 0.0
7.0963 0.1084 0.0
7.232 0.1084 0.0
7.3677 0.1084 0.0
7.5034 0.1084 0.0
7.5034 0.1084 0.0
6.299 0.1625 0.0
6.4327 0.1625 0.0
6.5664 0.1625 0.0
6.7001 0.1625 0.0
6.8339 0.1625 0.0
6.9676 0.1625 0.0
7.1013 0.1625 0.0
7.235 0.1625 0.0
7.3688 0.1625 0.0
7.5025 0.1625 0.0
7.5025 0.1625 0.0
6.3159 0.2165 0.0
6.4476 0.2165 0.0
6.5794 0.2165 0.0
6.7111 0.2165 0.0
6.8428 0.2165 0.0
6.9746 0.2165 0.0
7.1063 0.2165 0.0
7.2381 0.2165 0.0
7.3698 0.2165 0.0
7.5016 0.2165 0.0
7.5016 0.2165 0.0
6.3327 0.2702 0.0
6.4625 0.2702 0.0
6.5923 0.2702 0.0
6.722 0.2702 0.0
6.8518 0.2702 0.0
6.9816 0.2702 0.0
7.1113 0.2702 0.0
7.2411 0.2702 0.0
7.3709 0.2702 0.0
7.5006 0.2702 0.0
7.5006 0.2702 0.0
6.3495 0.3236 0.0
6.4773 0.3236 0.0
6.6051 0.3236 0.0
6.7329 0.3236 0.0
6.8607 0.3236 0.0
6.9885 0.3236 0.0
7.1163 0.3236 0.0
7.2441 0.3236 0.0
7.3719 0.3236 0.0
7.4997 0.3236 0.0
7.4997 0.3236 0.0
6.3662 0.3767 0.0
6.492 0.3767 0.0
6.6178 0.3767 0.0
6.7437 0.3767 0.0
6.8695 0.3767 0.0
6.9954 0.3767 0.0
7.1212 0.3767 0.0
7.2471 0.3767 0.0
7.3729 0.3767 0.0
7.4988 0.3767 0.0
7.4988 0.3767 0.0
6.3827 0.4295 0.0
6.5066 0.4295 0.0
6.6305 0.4295 0.0
6.7544 0.4295 0.0
6.8783 0.4295 0.0
7.0022 0.4295 0.0
7.1261 0.4295 0.0
7.2501 0.4295 0.0
7.374 0.4295 0.0
7.4979 0.4295 0.0
7.4979 0.4295 0.0
6.3991 0.4818 0.0
6.5211 0.4818 0.0
6.6431 0.4818 0.0
6.7651 0.4818 0.0
6.887 0.4818 0.0
7.009 0.4818 0.0
7.131 0.4818 0.0
7.253 0.4818 0.0
7.375 0.4818 0.0
7.497 0.4818 0.0
7.497 0.4818 0.0
6.4154 0.5337 0.0
6.5354 0.5337 0.0
6.6555 0.5337 0.0
6.7756 0.5337 0.0
6.8957 0.5337 0.0
7.0158 0.5337 0.0
7.1358 0.5337 0.0
7.2559 0.5337 0.0
7.376 0.5337 0.0
7.4961 0.5337 0.0
7.4961 0.5337 0.0
6.4315 0.585 0.0
6.5497 0.585 0.0
6.6678 0.585 0.0
6.786 0.585 0.0
6.9042 0.585 0.0
7.0224 0.585 0.0
7.1406 0.585 0.0
7.2588 0.585 0.0
7.377 0.585 0.0
7.4952 0.585 0.0
7.4952 0.585 0.0
6.4474 0.6358 0.0
6.5637 0.6358 0.0
6.68 0.6358 0.0
6.7964 0.6358 0.0
6.9127 0.6358 0.0
7.029 0.6358 0.0
7.1453 0.6358 0.0
7.2617 0.6358 0.0
7.378 0.6358 0.0
7.4943 0.6358 0.0
7.4943 0.6358 0.0
6.4631 0.6859 0.0
6.5776 0.6859 0.0
6.6921 0.6859 0.0
6.8065 0.6859 0.0
6.921 0.6859 0.0
7.0355 0.6859 0.0
7.15 0.6859 0.0
7.2645 0.6859 0.0
7.379 0.6859 0.0
7.4934 0.6859 0.0
7.4934 0.6859 0.0
6.4786 0.7353 0.0
6.5913 0.7353 0.0
6.7039 0.7353 0.0
6.8166 0.7353 0.0
6.9293 0.7353 0.0
7.0419 0.7353 0.0
7.1546 0.7353 0.0
7.2673 0.7353 0.0
7.3799 0.7353 0.0
7.4926 0.7353 0.0
7.4926 0.7353 0.0
6.4939 0.784 0.0
6.6048 0.784 0.0
6.7156 0.784 0.0
6.8265 0.784 0.0
6.9374 0.784 0.0
7.0482 0.784 0.0
7.1591 0.784 0.0
7.27 0.784 0.0
7.3809 0.784 0.0
7.4917 0.784 0.0
7.4917 0.784 0.0
6.5089 0.832 0.0
6.618 0.832 0.0
6.7271 0.832 0.0
6.8363 0.832 0.0
6.9454 0.832 0.0
7.0545 0.832 0.0
7.1636 0.832 0.0
7.2727 0.832 0.0
7.3818 0.832 0.0
7.4909 0.832 0.0
7.4909 0.832 0.0
6.5237 0.8791 0.0
6.6311 0.8791 0.0
6.7385 0.8791 0.0
6.8458 0.8791 0.0
6.9532 0.8791 0.0
7.0606 0.8791 0.0
7.168 0.8791 0.0
7.2753 0.8791 0.0
7.3827 0.8791 0.0
7.4901 0.8791 0.0
7.4901 0.8791 0.0
6.5382 0.9254 0.0
6.6439 0.9254 0.0
6.7496 0.9254 0.0
6.8552 0.9254 0.0
6.9609 0.9254 0.0
7.0666 0.9254 0.0
7.1723 0.9254 0.0
7.2779 0.9254 0.0
7.3836 0.9254 0.0
7.4893 0.9254 0.0
7.4893 0.9254 0.0
6.5524 0.9707 0.0
6.6564 0.9707 0.0
6.7604 0.9707 0.0
6.8645 0.9707 0.0
6.9685 0.9707 0.0
7.0725 0.9707 0.0
7.1765 0.9707 0.0
7.2805 0.9707 0.0
7.3845 0.9707 0.0
7.4885 0.9707 0.0
7.4885 0.9707 0.0
6.5664 1.0151 0.0
6.6687 1.0151 0.0
6.7711 1.0151 0.0
6.8735 1.0151 0.0
6.9759 1.0151 0.0
7.0782 1.0151 0.0
7.1806 1.0151 0.0
7.283 1.0151 0.0
7.3854 1.0151 0.0
7.4877 1.0151 0.0
7.4877 1.0151 0.0
6.58 1.0585 0.0
6.6807 1.0585 0.0
6.7815 1.0585 0.0
6.8823 1.0585 0.0
6.9831 1.0585 0.0
7.0839 1.0585 0.0
7.1846 1.0585 0.0
7.2854 1.0585 0.0
7.3862 1.0585 0.0
7.487 1.0585 0.0
7.487 1.0585 0.0
6.5932 1.1008 0.0
6.6925 1.1008 0.0
6.7917 1.1008 0.0
6.8909 1.1008 0.0
6.9901 1.1008 0.0
7.0894 1.1008 0.0
7.1886 1.1008 0.0
7.2878 1.1008 0.0
7.387 1.1008 0.0
7.4863 1.1008 0.0
7.4863 1.1008 0.0
6.6062 1.1421 0.0
6.7039 1.1421 0.0
6.8016 1.1421 0.0
6.8993 1.1421 0.0
6.997 1.1421 0.0
7.0947 1.1421 0.0
7.1924 1.1421 0.0
7.2901 1.1421 0.0
7.3878 1.1421 0.0
7.4855 1.1421 0.0
7.4855 1.1421 0.0
6.6188 1.1822 0.0
6.715 1.1822 0.0
6.8112 1.1822 0.0
6.9075 1.1822 0.0
7.0037 1.1822 0.0
7.0999 1.1822 0.0
7.1961 1.1822 0.0
7.2924 1.1822 0.0
7.3886 1.1822 0.0
7.4848 1.1822 0.0
7.4848 1.1822 0.0
6.631 1.2212 0.0
6.7258 1.2212 0.0
6.8206 1.2212 0.0
6.9154 1.2212 0.0
7.0102 1.2212 0.0
7.105 1.2212 0.0
7.1998 1.2212 0.0
7.2946 1.2212 0.0
7.3894 1.2212 0.0
7.4842 1.2212 0.0
7.4842 1.2212 0.0
6.6428 1.2589 0.0
6.7362 1.2589 0.0
6.8296 1.2589 0.0
6.9231 1.2589 0.0
7.0165 1.2589 0.0
7.1099 1.2589 0.0
7.2033 1.2589 0.0
7.2967 1.2589 0.0
7.3901 1.2589 0.0
7.4835 1.2589 0.0
7.4835 1.2589 0.0
6.6543 1.2954 0.0
6.7463 1.2954 0.0
6.8384 1.2954 0.0
6.9305 1.2954 0.0
7.0225 1.2954 0.0
7.1146 1.2954 0.0
7.2067 1.2954 0.0
7.2987 1.2954 0.0
7.3908 1.2954 0.0
7.4829 1.2954 0.0
7.4829 1.2954 0.0
6.6653 1.3307 0.0
6.7561 1.3307 0.0
6.8469 1.3307 0.0
6.9376 1.3307 0.0
7.0284 1.3307 0.0
7.1192 1.3307 0.0
7.21 1.3307 0.0
7.3007 1.3307 0.0
7.3915 1.3307 0.0
7.4823 1.3307 0.0
7.4823 1.3307 0.0
6.676 1.3646 0.0
6.7655 1.3646 0.0
6.855 1.3646 0.0
6.9445 1.3646 0.0
7.0341 1.3646 0.0
7.1236 1.3646 0.0
7.2131 1.3646 0.0
7.3026 1.3646 0.0
7.3922 1.3646 0.0
7.4817 1.3646 0.0
7.4817 1.3646 0.0
6.6862 1.3972 0.0
6.7745 1.3972 0.0
6.8628 1.3972 0.0
6.9512 1.3972 0.0
7.0395 1.3972 0.0
7.1278 1.3972 0.0
7.2161 1.3972 0.0
7.3045 1.3972 0.0
7.3928 1.3972 0.0
7.4811 1.3972 0.0
7.4811 1.3972 0.0
6.696 1.4284 0.0
6.7831 1.4284 0.0
6.8703 1.4284 0.0
6.9575 1.4284 0.0
7.0447 1.4284 0.0
7.1319 1.4284 0.0
7.219 1.4284 0.0
7.3062 1.4284 0.0
7.3934 1.4284 0.0
7.4806 1.4284 0.0
7.4806 1.4284 0.0
6.7053 1.4582 0.0
6.7914 1.4582 0.0
6.8775 1.4582 0.0
6.9636 1.4582 0.0
7.0496 1.4582 0.0
7.1357 1.4582 0.0
7.2218 1.4582 0.0
7.3079 1.4582 0.0
7.394 1.4582 0.0
7.4801 1.4582 0.0
7.4801 1.4582 0.0
6.7142 1.4865 0.0
6.7992 1.4865 0.0
6.8843 1.4865 0.0
6.9693 1.4865 0.0
7.0544 1.4865 0.0
7.1394 1.4865 0.0
7.2244 1.4865 0.0
7.3095 1.4865 0.0
7.3945 1.4865 0.0
7.4796 1.4865 0.0
7.4796 1.4865 0.0
6.7226 1.5134 0.0
6.8067 1.5134 0.0
6.8907 1.5134 0.0
6.9748 1.5134 0.0
7.0588 1.5134 0.0
7.1429 1.5134 0.0
7.2269 1.5134 0.0
7.311 1.5134 0.0
7.3951 1.5134 0.0
7.4791 1.5134 0.0
7.4791 1.5134 0.0
6.7306 1.5388 0.0
6.8137 1.5388 0.0
6.8968 1.5388 0.0
6.9799 1.5388 0.0
7.0631 1.5388 0.0
7.1462 1.5388 0.0
7.2293 1.5388 0.0
7.3124 1.5388 0.0
7.3956 1.5388 0.0
7.4787 1.5388 0.0
7.4787 1.5388 0.0
6.7381 1.5626 0.0
6.8203 1.5626 0.0
6.9026 1.5626 0.0
6.9848 1.5626 0.0
7.067 1.5626 0.0
7.1493 1.5626 0.0
7.2315 1.5626 0.0
7.3138 1.5626 0.0
7.396 1.5626 0.0
7.4783 1.5626 0.0
7.4783 1.5626 0.0
6.7451 1.585 0.0
6.8265 1.585 0.0
6.9079 1.585 0.0
6.9893 1.585 0.0
7.0708 1.585 0.0
7.1522 1.585 0.0
7.2336 1.585 0.0
7.315 1.585 0.0
7.3965 1.585 0.0
7.4779 1.585 0.0
7.4779 1.585 0.0
6.7516 1.6057 0.0
6.8322 1.6057 0.0
6.9129 1.6057 0.0
6.9936 1.6057 0.0
7.0742 1.6057 0.0
7.1549 1.6057 0.0
7.2355 1.6057 0.0
7.3162 1.6057 0.0
7.3969 1.6057 0.0
7.4775 1.6057 0.0
7.4775 1.6057 0.0
6.7576 1.6249 0.0
6.8376 1.6249 0.0
6.9175 1.6249 0.0
6.9975 1.6249 0.0
7.0774 1.6249 0.0
7.1574 1.6249 0.0
7.2373 1.6249 0.0
7.3173 1.6249 0.0
7.3972 1.6249 0.0
7.4772 1.6249 0.0
7.4772 1.6249 0.0
6.7631 1.6425 0.0
6.8424 1.6425 0.0
6.9217 1.6425 0.0
7.001 1.6425 0.0
7.0803 1.6425 0.0
7.1596 1.6425 0.0
7.239 1.6425 0.0
7.3183 1.6425 0.0
7.3976 1.6425 0.0
7.4769 1.6425 0.0
7.4769 1.6425 0.0
6.7681 1.6584 0.0
6.8468 1.6584 0.0
6.9256 1.6584 0.0
7.0043 1.6584 0.0
7.083 1.6584 0.0
7.1617 1.6584 0.0
7.2404 1.6584 0.0
7.3192 1.6584 0.0
7.3979 1.6584 0.0
7.4766 1.6584 0.0
7.4766 1.6584 0.0
6.7726 1.6727 0.0
6.8508 1.6727 0.0
6.929 1.6727 0.0
7.0072 1.6727 0.0
7.0854 1.6727 0.0
7.1636 1.6727 0.0
7.2418 1.6727 0.0
7.32 1.6727 0.0
7.3982 1.6727 0.0
7.4764 1.6727 0.0
7.4764 1.6727 0.0
6.7766 1.6854 0.0
6.8543 1.6854 0.0
6.932 1.6854 0.0
7.0098 1.6854 0.0
7.0875 1.6854 0.0
7.1652 1.6854 0.0
7.2429 1.6854 0.0
7.3207 1.6854 0.0
7.3984 1.6854 0.0
7.4761 1.6854 0.0
7.4761 1.6854 0.0
6.78 1.6964 0.0
6.8573 1.6964 0.0
6.9347 1.6964 0.0
7.012 1.6964 0.0
7.0893 1.6964 0.0
7.1666 1.6964 0.0
7.244 1.6964 0.0
7.3213 1.6964 0.0
7.3986 1.6964 0.0
7.4759 1.6964 0.0
7.4759 1.6964 0.0
6.7829 1.7057 0.0
6.8599 1.7057 0.0
6.9369 1.7057 0.0
7.0139 1.7057 0.0
7.0909 1.7057 0.0
7.1679 1.7057 0.0
7.2448 1.7057 0.0
7.3218 1.7057 0.0
7.3988 1.7057 0.0
7.4758 1.7057 0.0
7.4758 1.7057 0.0
6.7853 1.7134 0.0
6.862 1.7134 0.0
6.9387 1.7134 0.0
7.0154 1.7134 0.0
7.0921 1.7134 0.0
7.1688 1.7134 0.0
7.2456 1.7134 0.0
7.3223 1.7134 0.0
7.399 1.7134 0.0
7.4757 1.7134 0.0
7.4757 1.7134 0.0
6.7872 1.7193 0.0
6.8637 1.7193 0.0
6.9402 1.7193 0.0
7.0167 1.7193 0.0
7.0931 1.7193 0.0
7.1696 1.7193 0.0
7.2461 1.7193 0.0
7.3226 1.7193 0.0
7.3991 1.7193 0.0
7.4755 1.7193 0.0
7.4755 1.7193 0.0
6.7885 1.7236 0.0
6.8649 1.7236 0.0
6.9412 1.7236 0.0
7.0175 1.7236 0.0
7.0938 1.7236 0.0
7.1702 1.7236 0.0
7.2465 1.7236 0.0
7.3228 1.7236 0.0
7.3992 1.7236 0.0
7.4755 1.7236 0.0
7.4755 1.7236 0.0
6.7893 1.7261 0.0
6.8656 1.7261 0.0
6.9418 1.7261 0.0
7.018 1.7261 0.0
7.0943 1.7261 0.0
7.1705 1.7261 0.0
7.2467 1.7261 0.0
7.323 1.7261 0.0
7.3992 1.7261 0.0
7.4754 1.7261 0.0
7.4754 1.7261 0.0
6.7896 1.727 0.0
6.8658 1.727 0.0
6.942 1.727 0.0
7.0182 1.727 0.0
7.0944 1.727 0.0
7.1706 1.727 0.0
7.2468 1.727 0.0
7.323 1.727 0.0
7.3992 1.727 0.0
7.4754 1.727 0.0
7.4754 1.727 0.0

CELLS 500 2500
4 0 1 12 11
4 1 2 13 12
4 2 3 14 13
4 3 4 15 14
4 4 5 16 15
4 5 6 17 16
4 6 7 18 17
4 7 8 19 18
4 8 9 20 19
4 9 10 21 20
4 11 12 23 22
4 12 13 24 23
4 13 14 25 24
4 14 15 26 25
4 15 16 27 26
4 16 17 28 27
4 17 18 29 28
4 18 19 30 29
4 19 20 31 30
4 20 21 32 31
4 22 23 34 33
4 23 24 35 34
4 24 25 36 35
4 25 26 37 36
4 26 27 38 37
4 27 28 39 38
4 28 29 40 39
4 29 30 41 40
4 30 31 42 41
4 31 32 43 42
4 33 34 45 44
4 34 35 46 45
4 35 36 47 46
4 36 37 48 47
4 37 38 49 48
4 38 39 50 49
4 39 40 51 50
4 40 41 52 51
4 41 42 53 52
4 42 43 54 53
4 44 45 56 55
4 45 46 57 56
4 46 47 58 57
4 47 48 59 58
4 48 49 60 59
4 49 50 61 60
4 50 51 62 61
4 51 52 63 62
4 52 53 64 63
4 53 54 65 64
4 55 56 67 66
4 56 57 68 67
4 57 58 69 68
4 58 59 70 69
4 59 60 71 70
4 60 61 72 71
4 61 62 73 72
4 62 63 74 73
4 63 64 75 74
4 64 65 76 75
4 66 67 78 77
4 67 68 79 78
4 68 69 80 79
4 69 70 81 80
4 70 71 82 81
4 71 72 83 82
4 72 73 84 83
4 73 74 85 84
4 74 75 86 85
4 75 76 87 86
4 77 78 89 88
4 78 79 90 89
4 79 80 91 90
4 80 81 92 91
4 81 82 93 92
4 82 83 94 93
4 83 84 95 94
4 84 85 96 95
4 85 86 97 96
4 86 87 98 97
4 88 89 100 99
4 89 90 101 100
4 90 91 102 101
4 91 92 103 102
4 92 93 104 103
4 93 94 105 104
4 94 95 106 105
4 95 96 107 106
4 96 97 108 107
4 97 98 109 108
4 99 100 111 110
4 100 101 112 111
4 101 102 113 112
4 102 103 114 113
4 103 104 115 114
4 104 105 116 115
4 105 106 117 116
4 106 107 118 117
4 107 108 119 118
4 108 109 120 119
4 110 111 122 121
4 111 112 123 122
4 112 113 124 123
4 113 114 125 124
4 114 115 126 125
4 115 116 127 126
4 116 117 128 127
4 117 118 129 128
4 118 119 130 129
4 119 120 131 130
4 121 122 133 132
4 122 123 134 133
4 123 124 135 134
4 124 125 136 135
4 125 126 137 136
4 126 127 138 137
4 127 128 139 138
4 128 129 140 139
4 129 130 141 140
4 130 131 142 141
4 132 133 144 143
4 133 134 145 144
4 134 135 146 145
4 135 136 147 146
4 136 137 148 147
4 137 138 149 148
4 138 139 150 149
4 139 140 151 150
4 140 141 152 151
4 141 142 153 152
4 143 144 155 154
4 144 145 156 155
4 145 146 157 156
4 146 147 158 157
4 147 148 159 158
4 148 149 160 159
4 149 150 161 160
4 150 151 162 161
4 151 152 163 162
4 152 153 164 163
4 154 155 166 165
4 155 156 167 166
4 156 157 168 167
4 157 158 169 168
4 158 159 170 169
4 159 160 171 170
4 160 161 172 171
4 161 162 173 172
4 162 163 174 173
4 163 164 175 174
4 165 166 177 176
4 166 167 178 177
4 167 168 179 178
4 168 169 180 179
4 169 170 181 180
4 170 171 182 181
4 171 172 183 182
4 172 173 184 183
4 173 174 185 184
4 174 175 186 185
4 176 177 188 187
4 177 178 189 188
4 178 179 190 189
4 179 180 191 190
4 180 181 192 191
4 181 182 193 192
4 182 183 194 193
4 183 184 195 194
4 184 185 196 195
4 185 186 197 196
4 187 188 199 198
4 188 189 200 199
4 189 190 201 200
4 190 191 202 201
4 191 192 203 202
4 192 193 204 203
4 193 194 205 204
4 194 195 206 205
4 195 196 207 206
4 196 197 208 207
4 198 199 210 209
4 199 200 211 210
4 200 201 212 211
4 201 202 213 212
4 202 203 214 213
4 203 204 215 214
4 204 205 216 215
4 205 206 217 216
4 206 207 218 217
4 207 208 219 218
4 209 210 221 220
4 210 211 222 221
4 211 212 223 222
4 212 213 224 223
4 213 214 225 224
4 214 215 226 225
4 215 216 227 226
4 216 217 228 227
4 217 218 229 228
4 218 219 230 229
4 220 221 232 231
4 221 222 233 232
4 222 223 234 233
4 223 224 235 234
4 224 225 236 235
4 225 226 237 236
4 226 227 238 237
4 227 228 239 238
4 228 229 240 239
4 229 230 241 240
4 231 232 243 242
4 232 233 244 243
4 233 234 245 244
4 234 235 246 245
4 235 236 247 246
4 236 237 248 247
4 237 238 249 248
4 238 239 250 249
4 239 240 251 250
4 240 241 252 251
4 242 243 254 253
4 243 244 255 254
4 244 245 256 255
4 245 246 257 256
4 246 247 258 257
4 247 248 259 258
4 248 249 260 259
4 249 250 261 260
4 250 251 262 261
4 251 252 263 262
4 253 254 265 264
4 254 255 266 265
4 255 256 267 266
4 256 257 268 267
4 257 258 269 268
4 258 259 270 269
4 259 260 271 270
4 260 261 272 271
4 261 262 273 272
4 262 263 274 273
4 264 265 276 275
4 265 266 277 276
4 266 267 278 277
4 267 268 279 278
4 268 269 280 279
4 269 270 281 280
4 270 271 282 281
4 271 272 283 282
4 272 273 284 283
4 273 274 285 284
4 275 276 287 286
4 276 277 288 287
4 277 278 289 288
4 278 279 290 289
4 279 280 291 290
4 280 281 292 291
4 281 282 293 292
4 282 283 294 293
4 283 284 295 294
4 284 285 296 295
4 286 287 298 297
4 287 288 299 298
4 288 289 300 299
4 289 290 301 300
4 290 291 302 301
4 291 292 303 302
4 292 293 304 303
4 293 294 305 304
4 294 295 306 305
4 295 296 307 306
4 297 298 309 308
4 298 299 310 309
4 299 300 311 310
4 300 301 312 311
4 301 302 313 312
4 302 303 314 313
4 303 304 315 314
4 304 305 316 315
4 305 306 317 316
4 306 307 318 317
4 308 309 320 319
4 309 310 321 320
4 310 311 322 321
4 311 312 323 322
4 312 313 324 323
4 313 314 325 324
4 314 315 326 325
4 315 316 327 326
4 316 317 328 327
4 317 318 329 328
4 319 320 331 330
4 320 321 332 331
4 321 322 333 332
4 322 323 334 333
4 323 324 335 334
4 324 325 336 335
4 325 326 337 336
4 326 327 338 337
4 327 328 339 338
4 328 329 340 339
4 330 331 342 341
4 331 332 343 342
4 332 333 344 343
4 333 334 345 344
4 334 335 346 345
4 335 336 347 346
4 336 337 348 347
4 337 338 349 348
4 338 339 350 349
4 339 340 351 350
4 341 342 353 352
4 342 343 354 353
4 343 344 355 354
4 344 345 356 355
4 345 346 357 356
4 346 347 358 357
4 347 348 359 358
4 348 349 360 359
4 349 350 361 360
4 350 351 362 361
4 352 353 364 363
4 353 354 365 364
4 354 355 366 365
4 355 356 367 366
4 356 357 368 367
4 357 358 369 368
4 358 359 370 369
4 359 360 371 370
4 360 361 372 371
4 361 362 373 372
4 363 364 375 374
4 364 365 376 375
4 365 366 377 376
4 366 367 378 377
4 367 368 379 378
4 368 369 380 379
4 369 370 381 380
4 370 371 382 381
4 371 372 383 382
4 372 373 384 383
4 374 375 386 385
4 375 376 387 386
4 376 377 388 387
4 377 378 389 388
4 378 379 390 389
4 379 380 391 390
4 380 381 392 391
4 381 382 393 392
4 382 383 394 393
4 383 384 395 394
4 385 386 397 396
4 386 387 398 397
4 387 388 399 398
4 388 389 400 399
4 389 390 401 400
4 390 391 402 401
4 391 392 403 402
4 392 393 404 403
4 393 394 405 404
4 394 395 406 405
4 396 397 408 407
4 397 398 409 408
4 398 399 410 409
4 399 400 411 410
4 400 401 412 411
4 401 402 413 412
4 402 403 414 413
4 403 404 415 414
4 404 405 416 415
4 405 406 417 416
4 407 408 419 418
4 408 409 420 419
4 409 410 421 420
4 410 411 422 421
4 411 412 423 422
4 412 413 424 423
4 413 414 425 424
4 414 415 426 425
4 415 416 427 426
4 416 417 428 427
4 418 419 430 429
4 419 420 431 430
4 420 421 432 431
4 421 422 433 432
4 422 423 434 433
4 423 424 435 434
4 424 425 436 435
4 425 426 437 436
4 426 427 438 437
4 427 428 439 438
4 429 430 441 440
4 430 431 442 441
4 431 432 443 442
4 432 433 444 443
4 433 434 445 444
4 434 435 446 445
4 435 436 447 446
4 436 437 448 447
4 437 438 449 448
4 438 439 450 449
4 440 441 452 451
4 441 442 453 452
4 442 443 454 453
4 443 444 455 454
4 444 445 456 455
4 445 446 457 456
4 446 447 458 457
4 447 448 459 458
4 448 449 460 459
4 449 450 461 460
4 451 452 463 462
4 452 453 464 463
4 453 454 465 464
4 454 455 466 465
4 455 456 467 466
4 456 457 468 467
4 457 458 469 468
4 458 459 470 469
4 459 460 471 470
4 460 461 472 471
4 462 463 474 473
4 463 464 475 474
4 464 465 476 475
4 465 466 477 476
4 466 467 478 477
4 467 468 479 478
4 468 469 480 479
4 469 470 481 480
4 470 471 482 481
4 471 472 483 482
4 473 474 485 484
4 474 475 486 485
4 475 476 487 486
4 476 477 488 487
4 477 478 489 488
4 478 479 490 489
4 479 480 491 490
4 480 481 492 491
4 481 482 493 492
4 482 483 494 493
4 484 485 496 495
4 485 486 497 496
4 486 487 498 497
4 487 488 499 498
4 488 489 500 499
4 489 490 501 500
4 490 491 502 501
4 491 492 503 502
4 492 493 504 503
4 493 494 505 504
4 495 496 507 506
4 496 497 508 507
4 497 498 509 508
4 498 499 510 509
4 499 500 511 510
4 500 501 512 511
4 501 502 513 512
4 502 503 514 513
4 503 504 515 514
4 504 505 516 515
4 506 507 518 517
4 507 508 519 518
4 508 509 520 519
4 509 510 521 520
4 510 511 522 521
4 511 512 523 522
4 512 513 524 523
4 513 514 525 524
4 514 515 526 525
4 515 516 527 526
4 517 518 529 528
4 518 519 530 529
4 519 520 531 530
4 520 521 532 531
4 521 522 533 532
4 522 523 534 533
4 523 524 535 534
4 524 525 536 535
4 525 526 537 536
4 526 527 538 537
4 528 529 540 539
4 529 530 541 540
4 530 531 542 541
4 531 532 543 542
4 532 533 544 543
4 533 534 545 544
4 534 535 546 545
4 535 536 547 546
4 536 537 548 547
4 537 538 549 548
4 539 540 551 550
4 540 541 552 551
4 541 542 553 552
4 542 543 554 553
4 543 544 555 554
4 544 545 556 555
4 545 546 557 556
4 546 547 558 557
4 547 548 559 558
4 548 549 560 559

CELL_TYPES 500
9
9
9
9
9
9
9
9
9
9
9
9
9
9
9
9
9
9
9
9
9
9
9
9
9
9
9
9
9
9
9
9
9
9
9
9
9
9
9
9
9
9
9
9
9
9
9
9
9
9
9
9
9
9
9
9
9
9
9
9
9
9
9
9
9
9
9
9
9
9
9
9
9
9
9
9
9
9
9
9
9
9
9
9
9
9
9
9
9
9
9
9
9
9
9
9
9
9
9
9
9
9
9
9
9
9
9
9
9
9
9
9
9
9
9
9
9
9
9
9
9
9
9
9
9
9
9
9
9
9
9
9
9
9
9
9
9
9
9
9
9
9
9
9
9
9
9
9
9
9
9
9
9
9
9
9
9
9
9
9
9
9
9
9
9
9
9
9
9
9
9
9
9
9
9
9
9
9
9
9
9
9
9
9
9
9
9
9
9
9
9
9
9
9
9
9
9
9
9
9
9
9
9
9
9
9
9
9
9
9
9
9
9
9
9
9
9
9
9
9
9
9
9
9
9
9
9
9
9
9
9
9
9
9
9
9
9
9
9
9
9
9
9
9
9
9
9
9
9
9
9
9
9
9
9
9
9
9
9
9
9
9
9
9
9
9
9
9
9
9
9
9
9
9
9
9
9
9
9
9
9
9
9
9
9
9
9
9
9
9
9
9
9
9
9
9
9
9
9
9
9
9
9
9
9
9
9
9
9
9
9
9
9
9
9
9
9
9
9
9
9
9
9
9
9
9
9
9
9
9
9
9
9
9
9
9
9
9
9
9
9
9
9
9
9
9
9
9
9
9
9
9
9
9
9
9
9
9
9
9
9
9
9
9
9
9
9
9
9
9
9
9
9
9
9
9
9
9
9
9
9
9
9
9
9
9
9
9
9
9
9
9
9
9
9
9
9
9
9
9
9
9
9
9
9
9
9
9
9
9
9
9
9
9
9
9
9
9
9
9
9
9
9
9
9
9
9
9
9
9
9
9
9
9
9
9
9
9
9
9
9
9
9
9
9
9
9
9
9
9
9
9
9
9
9
9
9
9
9
9
9
9
9
9
9
9
9
9
9
9
9
9
9
9
9
9
9
9
9
9
9
9
9
9
9
9
9
9
9
9
9
9
9
9
9
9
9
9
9
9

CELL_DATA 500
SCALARS cl float 1
LOOKUP_TABLE default
0.4601110240284061
0.4601110240284061
0.4601110240284061
0.4601110240284061
0.4601110240284061
0.4601110240284061
0.4601110240284061
0.4601110240284061
0.4601110240284061
0.4601110240284061
0.46177096520030103
0.46177096520030103
0.46177096520030103
0.46177096520030103
0.46177096520030103
0.46177096520030103
0.46177096520030103
0.46177096520030103
0.46177096520030103
0.46177096520030103
0.4617478174858207
0.4617478174858207
0.4617478174858207
0.4617478174858207
0.4617478174858207
0.4617478174858207
0.4617478174858207
0.4617478174858207
0.4617478174858207
0.4617478174858207
0.45975622742987493
0.45975622742987493
0.45975622742987493
0.45975622742987493
0.45975622742987493
0.45975622742987493
0.45975622742987493
0.45975622742987493
0.45975622742987493
0.45975622742987493
0.45531620902024444
0.45531620902024444
0.45531620902024444
0.45531620902024444
0.45531620902024444
0.45531620902024444
0.45531620902024444
0.45531620902024444
0.45531620902024444
0.45531620902024444
0.44775177767003255
0.44775177767003255
0.44775177767003255
0.44775177767003255
0.44775177767003255
0.44775177767003255
0.44775177767003255
0.44775177767003255
0.44775177767003255
0.44775177767003255
0.4361251758708866
0.4361251758708866
0.4361251758708866
0.4361251758708866
0.4361251758708866
0.4361251758708866
0.4361251758708866
0.4361251758708866
0.4361251758708866
0.4361251758708866
0.4192843787125563
0.4192843787125563
0.4192843787125563
0.4192843787125563
0.4192843787125563
0.4192843787125563
0.4192843787125563
0.4192843787125563
0.4192843787125563
0.4192843787125563
0.39660113134667796
0.39660113134667796
0.39660113134667796
0.39660113134667796
0.39660113134667796
0.39660113134667796
0.39660113134667796
0.39660113134667796
0.39660113134667796
0.39660113134667796
0.3553085522947854
0.3553085522947854
0.3553085522947854
0.3553085522947854
0.3553085522947854
0.3553085522947854
0.3553085522947854
0.3553085522947854
0.3553085522947854
0.3553085522947854
0.3205301985711436
0.3205301985711436
0.3205301985711436
0.3205301985711436
0.3205301985711436
0.3205301985711436
0.3205301985711436
0.3205301985711436
0.3205301985711436
0.3205301985711436
0.29417886026245793
0.29417886026245793
0.29417886026245793
0.29417886026245793
0.29417886026245793
0.29417886026245793
0.29417886026245793
0.29417886026245793
0.29417886026245793
0.29417886026245793
0.2843650925290616
0.2843650925290616
0.2843650925290616
0.2843650925290616
0.2843650925290616
0.2843650925290616
0.2843650925290616
0.2843650925290616
0.2843650925290616
0.2843650925290616
0.3105210136207687
0.3105210136207687
0.3105210136207687
0.3105210136207687
0.3105210136207687
0.3105210136207687
0.3105210136207687
0.3105210136207687
0.3105210136207687
0.3105210136207687
0.39260040301470156
0.39260040301470156
0.39260040301470156
0.39260040301470156
0.39260040301470156
0.39260040301470156
0.39260040301470156
0.39260040301470156
0.39260040301470156
0.39260040301470156
0.5154515520014665
0.5154515520014665
0.5154515520014665
0.5154515520014665
0.5154515520014665
0.5154515520014665
0.5154515520014665
0.5154515520014665
0.5154515520014665
0.5154515520014665
0.6113758208600814
0.6113758208600814
0.6113758208600814
0.6113758208600814
0.6113758208600814
0.6113758208600814
0.6113758208600814
0.6113758208600814
0.6113758208600814
0.6113758208600814
0.6439042923347285
0.6439042923347285
0.6439042923347285
0.6439042923347285
0.6439042923347285
0.6439042923347285
0.6439042923347285
0.6439042923347285
0.6439042923347285
0.6439042923347285
0.6415515451837603
0.6415515451837603
0.6415515451837603
0.6415515451837603
0.6415515451837603
0.6415515451837603
0.6415515451837603
0.6415515451837603
0.6415515451837603
0.6415515451837603
0.62176919952828
0.62176919952828
0.62176919952828
0.62176919952828
0.62176919952828
0.62176919952828
0.62176919952828
0.62176919952828
0.62176919952828
0.62176919952828
0.5926500808827383
0.5926500808827383
0.5926500808827383
0.5926500808827383
0.5926500808827383
0.5926500808827383
0.5926500808827383
0.5926500808827383
0.5926500808827383
0.5926500808827383
0.5589589320418449
0.5589589320418449
0.5589589320418449
0.5589589320418449
0.5589589320418449
0.5589589320418449
0.5589589320418449
0.5589589320418449
0.5589589320418449
0.5589589320418449
0.5259490845359279
0.5259490845359279
0.5259490845359279
0.5259490845359279
0.5259490845359279
0.5259490845359279
0.5259490845359279
0.5259490845359279
0.5259490845359279
0.5259490845359279
0.5022972961820867
0.5022972961820867
0.5022972961820867
0.5022972961820867
0.5022972961820867
0.5022972961820867
0.5022972961820867
0.5022972961820867
0.5022972961820867
0.5022972961820867
0.48227071255252524
0.48227071255252524
0.48227071255252524
0.48227071255252524
0.48227071255252524
0.48227071255252524
0.48227071255252524
0.48227071255252524
0.48227071255252524
0.48227071255252524
0.46512123547082923
0.46512123547082923
0.46512123547082923
0.46512123547082923
0.46512123547082923
0.46512123547082923
0.46512123547082923
0.46512123547082923
0.46512123547082923
0.46512123547082923
0.4498904166124568
0.4498904166124568
0.4498904166124568
0.4498904166124568
0.4498904166124568
0.4498904166124568
0.4498904166124568
0.4498904166124568
0.4498904166124568
0.4498904166124568
0.43580250688344396
0.43580250688344396
0.43580250688344396
0.43580250688344396
0.43580250688344396
0.43580250688344396
0.43580250688344396
0.43580250688344396
0.43580250688344396
0.43580250688344396
0.42231246739394135
0.42231246739394135
0.42231246739394135
0.42231246739394135
0.42231246739394135
0.42231246739394135
0.42231246739394135
0.42231246739394135
0.42231246739394135
0.42231246739394135
0.4090504201071552
0.4090504201071552
0.4090504201071552
0.4090504201071552
0.4090504201071552
0.4090504201071552
0.4090504201071552
0.4090504201071552
0.4090504201071552
0.4090504201071552
0.39576195776539
0.39576195776539
0.39576195776539
0.39576195776539
0.39576195776539
0.39576195776539
0.39576195776539
0.39576195776539
0.39576195776539
0.39576195776539
0.38226509131220243
0.38226509131220243
0.38226509131220243
0.38226509131220243
0.38226509131220243
0.38226509131220243
0.38226509131220243
0.38226509131220243
0.38226509131220243
0.38226509131220243
0.36842412065929436
0.36842412065929436
0.36842412065929436
0.36842412065929436
0.36842412065929436
0.36842412065929436
0.36842412065929436
0.36842412065929436
0.36842412065929436
0.36842412065929436
0.3541379209927507
0.3541379209927507
0.3541379209927507
0.3541379209927507
0.3541379209927507
0.3541379209927507
0.3541379209927507
0.3541379209927507
0.3541379209927507
0.3541379209927507
0.3393291908464248
0.3393291908464248
0.3393291908464248
0.3393291908464248
0.3393291908464248
0.3393291908464248
0.3393291908464248
0.3393291908464248
0.3393291908464248
0.3393291908464248
0.32394279041385143
0.32394279041385143
0.32394279041385143
0.32394279041385143
0.32394279041385143
0.32394279041385143
0.32394279041385143
0.32394279041385143
0.32394279041385143
0.32394279041385143
0.30794187891288977
0.30794187891288977
0.30794187891288977
0.30794187891288977
0.30794187891288977
0.30794187891288977
0.30794187891288977
0.30794187891288977
0.30794187891288977
0.30794187891288977
0.29130671283658754
0.29130671283658754
0.29130671283658754
0.29130671283658754
0.29130671283658754
0.29130671283658754
0.29130671283658754
0.29130671283658754
0.29130671283658754
0.29130671283658754
0.27403480678889386
0.27403480678889386
0.27403480678889386
0.27403480678889386
0.27403480678889386
0.27403480678889386
0.27403480678889386
0.27403480678889386
0.27403480678889386
0.27403480678889386
0.2561428228564941
0.2561428228564941
0.2561428228564941
0.2561428228564941
0.2561428228564941
0.2561428228564941
0.2561428228564941
0.2561428228564941
0.2561428228564941
0.2561428228564941
0.23766959737030882
0.23766959737030882
0.23766959737030882
0.23766959737030882
0.23766959737030882
0.23766959737030882
0.23766959737030882
0.23766959737030882
0.23766959737030882
0.23766959737030882
0.2186767203297186
0.2186767203297186
0.2186767203297186
0.2186767203297186
0.2186767203297186
0.2186767203297186
0.2186767203297186
0.2186767203297186
0.2186767203297186
0.2186767203297186
0.1992525425356608
0.1992525425356608
0.1992525425356608
0.1992525425356608
0.1992525425356608
0.1992525425356608
0.1992525425356608
0.1992525425356608
0.1992525425356608
0.1992525425356608
0.17952600807707245
0.17952600807707245
0.17952600807707245
0.17952600807707245
0.17952600807707245
0.17952600807707245
0.17952600807707245
0.17952600807707245
0.17952600807707245
0.17952600807707245
0.15967787633492259
0.15967787633492259
0.15967787633492259
0.15967787633492259
0.15967787633492259
0.15967787633492259
0.15967787633492259
0.15967787633492259
0.15967787633492259
0.15967787633492259
0.13996543922873153
0.13996543922873153
0.13996543922873153
0.13996543922873153
0.13996543922873153
0.13996543922873153
0.13996543922873153
0.13996543922873153
0.13996543922873153
0.13996543922873153
0.12078187282259566
0.12078187282259566
0.12078187282259566
0.12078187282259566
0.12078187282259566
0.12078187282259566
0.12078187282259566
0.12078187282259566
0.12078187282259566
0.12078187282259566
0.1027670638930111
0.1027670638930111
0.1027670638930111
0.1027670638930111
0.1027670638930111
0.1027670638930111
0.1027670638930111
0.1027670638930111
0.1027670638930111
0.1027670638930111
0.08709385682835188
0.08709385682835188
0.08709385682835188
0.08709385682835188
0.08709385682835188
0.08709385682835188
0.08709385682835188
0.08709385682835188
0.08709385682835188
0.08709385682835188
0.08039608297421565
0.08039608297421565
0.08039608297421565
0.08039608297421565
0.08039608297421565
0.08039608297421565
0.08039608297421565
0.08039608297421565
0.08039608297421565
0.08039608297421565
SCALARS Cl/CL float 1
LOOKUP_TABLE default
1.0693492892871455
1.0693492892871455
1.0693492892871455
1.0693492892871455
1.0693492892871455
1.0693492892871455
1.0693492892871455
1.0693492892871455
1.0693492892871455
1.0693492892871455
1.073207177535254
1.073207177535254
1.073207177535254
1.073207177535254
1.073207177535254
1.073207177535254
1.073207177535254
1.073207177535254
1.073207177535254
1.073207177535254
1.0731533796674884
1.0731533796674884
1.0731533796674884
1.0731533796674884
1.0731533796674884
1.0731533796674884